LAMMPS (23 Jun 2022 - Update 1)
OMP_NUM_THREADS environment is not set. Defaulting to 1 thread. (src/comm.cpp:98)
  using 1 OpenMP thread(s) per MPI task
OMP_NUM_THREADS environment is not set. Defaulting to 1 thread. (src/comm.cpp:98)
  using 1 OpenMP thread(s) per MPI task
Reading restart file ...
  restart file = 23 Jun 2022, LAMMPS = 23 Jun 2022
WARNING: Restart file used different # of processors: 240 vs. 200 (src/read_restart.cpp:654)
  restoring atom style atomic from restart
  orthogonal box = (-0.26799616 -0.27077339 -1.0407774) to (647.71712 654.4294 1860.914)
  4 by 5 by 10 MPI processor grid
  pair style eam/alloy stores no restart info
  43680000 atoms
  read_restart CPU = 15.510 seconds
Deleted 7092 atoms, new total = 43672908
21891 atoms in group relaxball
43651017 atoms in group relaxball1
257053 atoms in group gogogo
482144 atoms in group end
42933711 atoms in group bulk
Neighbor list info ...
  update every 1 steps, delay 10 steps, check yes
  max neighbors/atom: 2000, page size: 100000
  master list distance cutoff = 7.3
  ghost atom cutoff = 7.3
  binsize = 3.65, bins = 178 180 511
  1 neighbor lists, perpetual/occasional/extra = 1 0 0
  (1) pair eam/alloy, perpetual
      attributes: half, newton on
      pair build: half/bin/atomonly/newton
      stencil: half/bin/3d
      bin: standard
Setting up Verlet run ...
  Unit style    : metal
  Current step  : 0
  Time step     : 0.001
Per MPI rank memory allocation (min/avg/max) = 257.1 | 260.4 | 261.2 Mbytes
   Step           Lx             Ly             Lz            Pxx            Pyy            Pzz            Temp     
         0   647.98512      654.70017      1861.9548     -116.30067     -116.10279      0.30042092     300.53452    
       100   647.98512      654.70017      1861.9548     -134.73342     -131.78863      12.197018      301.16648    
       200   647.98512      654.70017      1861.9548     -153.14154     -152.81072     -22.151587      300.64614    
       300   647.98512      654.70017      1861.9548     -135.14785     -132.68129     -4.8171802      300.75957    
       400   647.98512      654.70017      1861.9548     -127.20893     -126.25287     -10.280579      299.81168    
       500   647.98512      654.70017      1861.9548     -121.98692     -119.66696      25.401282      300.1783     
       600   647.98512      654.70017      1861.9548     -148.61713     -147.11868     -25.703352      300.18548    
       700   647.98512      654.70017      1861.9548     -141.6803      -139.96917     -16.490797      300.55448    
       800   647.98512      654.70017      1861.9548     -138.4539      -137.43936     -6.0416378      301.41583    
       900   647.98512      654.70017      1861.9548     -140.48562     -137.80983     -2.9925938      300.81165    
      1000   647.98512      654.70017      1861.9548     -140.64286     -138.97621     -7.4978615      300.76485    
      1100   647.98512      654.70017      1861.9548     -136.51586     -135.93702     -20.48668       299.8952     
      1200   647.98512      654.70017      1861.9548     -130.48826     -131.45576      9.3068444      300.26281    
      1300   647.98512      654.70017      1861.9548     -140.69168     -141.18576     -6.3542467      300.29998    
      1400   647.98512      654.70017      1861.9548     -140.14337     -139.32625     -7.9781516      300.65167    
      1500   647.98512      654.70017      1861.9548     -141.53199     -142.44063     -21.714485      300.59104    
      1600   647.98512      654.70017      1861.9548     -136.36208     -134.86646     -5.6603242      300.88991    
      1700   647.98512      654.70017      1861.9548     -142.57168     -143.34143     -6.9777464      300.48802    
      1800   647.98512      654.70017      1861.9548     -142.31782     -140.62076     -17.046769      300.15476    
      1900   647.98512      654.70017      1861.9548     -134.44652     -135.70241     -4.8460207      300.26649    
      2000   647.98512      654.70017      1861.9548     -141.79585     -140.9498      -16.692998      300.32618    
Loop time of 816.285 on 200 procs for 2000 steps with 43672908 atoms

Performance: 0.212 ns/day, 113.373 hours/ns, 2.450 timesteps/s
98.6% CPU use with 200 MPI tasks x 1 OpenMP threads

MPI task timing breakdown:
Section |  min time  |  avg time  |  max time  |%varavg| %total
---------------------------------------------------------------
Pair    | 519.12     | 621.23     | 660.74     | 128.6 | 76.10
Neigh   | 0          | 0          | 0          |   0.0 |  0.00
Comm    | 38.346     | 77.47      | 184.57     | 378.6 |  9.49
Output  | 0.25812    | 0.26178    | 0.27169    |   0.3 |  0.03
Modify  | 62.939     | 77.154     | 95.138     |  71.9 |  9.45
Other   |            | 40.17      |            |       |  4.92

Nlocal:         218365 ave      219124 max      215002 min
Histogram: 2 0 0 0 0 2 18 43 104 31
Nghost:        68429.9 ave       70905 max       60288 min
Histogram: 40 0 0 0 0 0 0 1 3 156
Neighs:    9.57895e+06 ave 9.63603e+06 max 9.41398e+06 min
Histogram: 10 12 0 0 0 1 7 55 95 20

Total # of neighbors = 1.9157891e+09
Ave neighs/atom = 43.866763
Neighbor list builds = 0
Dangerous builds = 0
Lattice spacing in x,y,z = 4.065 4.065 4.065
Setting up Verlet run ...
  Unit style    : metal
  Current step  : 2000
  Time step     : 0.001
Per MPI rank memory allocation (min/avg/max) = 272 | 276.2 | 277 Mbytes
   Step           Lx             Ly             Lz            Pxx            Pyy            Pzz            Temp     
      2000   647.98512      654.70017      1861.9777     -141.38962     -141.34493     -24.169917      300          
      2100   647.98512      654.70017      1861.9777     -141.9441      -145.89114     -14.661254      300.22453    
      2200   647.98512      654.70017      1861.9777     -149.57753     -148.19231     -28.325142      300.52807    
      2300   647.98512      654.70017      1861.9777     -146.21426     -147.7116      -18.589161      300.50717    
      2400   647.98512      654.70017      1861.9777     -142.25829     -141.12865     -13.6029        300.27473    
      2500   647.98512      654.70017      1861.9777     -143.85894     -143.89153     -22.724526      300.55816    
      2600   647.98512      654.70017      1861.9777     -142.02228     -141.96889     -14.794357      300.30045    
      2700   647.98512      654.70017      1861.9777     -144.3001      -145.80632     -16.40403       300.26857    
      2800   647.98512      654.70017      1861.9777     -137.49505     -140.10311     -4.6157281      300.15859    
      2900   647.98512      654.70017      1861.9777     -141.11985     -140.0002      -20.650629      300.31466    
      3000   647.98512      654.70017      1861.9777     -141.69416     -141.52802     -13.834793      300.29592    
Loop time of 402.447 on 200 procs for 1000 steps with 43672908 atoms

Performance: 0.215 ns/day, 111.791 hours/ns, 2.485 timesteps/s
98.6% CPU use with 200 MPI tasks x 1 OpenMP threads

MPI task timing breakdown:
Section |  min time  |  avg time  |  max time  |%varavg| %total
---------------------------------------------------------------
Pair    | 259.73     | 311.1      | 333.44     |  97.3 | 77.30
Neigh   | 0          | 0          | 0          |   0.0 |  0.00
Comm    | 21.251     | 42.603     | 98.282     | 275.3 | 10.59
Output  | 0.1417     | 0.21679    | 0.30294    |   9.9 |  0.05
Modify  | 9.7493     | 21.8       | 29.258     |  79.3 |  5.42
Other   |            | 26.72      |            |       |  6.64

Nlocal:         218365 ave      219013 max      215590 min
Histogram: 2 0 0 0 0 6 28 32 96 36
Nghost:        68437.1 ave       71036 max       60435 min
Histogram: 40 0 0 0 0 0 0 2 2 156
Neighs:    9.57928e+06 ave 9.63109e+06 max 9.39992e+06 min
Histogram: 5 9 8 0 0 0 2 29 111 36

Total # of neighbors = 1.9158569e+09
Ave neighs/atom = 43.868316
Neighbor list builds = 0
Dangerous builds = 0
Setting atom values ...
  257053 settings made for vx
  257053 settings made for vy
  257053 settings made for vz
Setting up Verlet run ...
  Unit style    : metal
  Current step  : 0
  Time step     : 0.001
Per MPI rank memory allocation (min/avg/max) = 323.1 | 328.4 | 329.3 Mbytes
   Step           Lx             Ly             Lz            Pxx            Pyy            Pzz            Temp     
         0   647.98512      654.70017      1861.981      -155.27714     -155.0749       522.34799      322.52534    
       100   647.98512      654.70017      1861.981       476.74016      478.13381      2173.2875      328.8102     
       200   647.98512      654.70017      1861.0073      1214.5547      1212.5509      4186.3981      342.22316    
       300   647.98512      654.70017      1859.9163      1924.5242      1924.7956      6180.5927      355.76085    
       400   647.98512      654.70017      1859.4195      2651.4556      2650.3009      8189.6348      368.49335    
       500   647.98512      654.70017      1858.3857      3376.3808      3376.7924      10200.229      381.67397    
       600   647.98512      654.70017      1857.9338      4094.0236      4093.0686      12176.607      394.92483    
       700   647.98512      654.70017      1856.9763      4820.6219      4820.5949      14179.404      407.39543    
       800   647.98512      654.70017      1856.1046      5536.4627      5536.8508      16159.665      420.3873     
       900   647.98512      654.70017      1855.6517      6256.0895      6258.1799      18145.914      433.76215    
      1000   647.98512      654.70017      1854.7576      6982.0957      6981.6981      20130.261      447.04749    
      1100   647.98512      654.70017      1853.9101      7700.8323      7701.9116      22100.947      459.56538    
      1200   647.98512      654.70017      1853.0985      8422.9555      8422.4205      24076.333      472.16704    
      1300   647.98512      654.70017      1852.5498      9143.8344      9146.453       26064.095      486.59659    
      1400   647.98512      654.70017      1851.7121      9881.2426      9882.0527      28049.494      499.63153    
      1500   647.98512      654.70017      1850.9043      10597.307      10600.653      29986.039      512.01556    
      1600   647.98512      654.70017      1850.1521      11322.61       11323.615      31950.92       524.6964     
      1700   647.98512      654.70017      1849.3357      12057.62       12060.364      33906.158      537.50837    
      1800   647.98512      654.70017      1848.5629      12796.857      12794.749      35838.159      550.13391    
      1900   647.98512      654.70017      1848.074       13504.141      13506.863      37743.023      562.87902    
      2000   647.98512      654.70017      1847.4115      14210.648      14210.839      39601.042      575.7471     
      2100   647.98512      654.70017      1846.5794      14973.002      14974.219      41558.165      588.49313    
      2200   647.98512      654.70017      1845.7321      15736.623      15738.087      43468.787      601.10049    
      2300   647.98512      654.70017      1844.9454      16485.284      16484.047      45328.383      613.66774    
      2400   647.98512      654.70017      1844.2322      17236.445      17230.86       47148.883      625.99289    
      2500   647.98512      654.70017      1843.4523      18011.672      18003.756      48922.526      638.31914    
      2600   647.98512      654.70017      1842.6943      18809.896      18798.733      50684.687      650.05038    
      2700   647.98512      654.70017      1842.001       19610.433      19592.933      52386.976      662.0225     
      2800   647.98512      654.70017      1841.1135      20432.151      20410.69       54047.126      673.62992    
      2900   647.98512      654.70017      1840.3908      21273.306      21250.339      55643.645      685.03075    
      3000   647.98512      654.70017      1839.6273      22143.445      22116.389      57216.637      696.07786    
      3100   647.98512      654.70017      1838.9528      23019.784      22992.848      58746.204      706.79636    
      3200   647.98512      654.70017      1838.1552      23914.997      23886.787      60232.657      717.49189    
      3300   647.98512      654.70017      1837.3515      24830.516      24798.932      61702.843      728.05972    
      3400   647.98512      654.70017      1836.5889      25752.633      25722.75       63143.363      738.53069    
      3500   647.98512      654.70017      1835.8186      26677.629      26649.826      64579.608      748.88893    
      3600   647.98512      654.70017      1835.068       27609.303      27584.255      65991.354      759.47149    
      3700   647.98512      654.70017      1834.2641      28548.924      28528.589      67399.001      769.2957     
      3800   647.98512      654.70017      1833.542       29500.548      29483.576      68797.19       779.30441    
      3900   647.98512      654.70017      1832.751       30455.871      30438.956      70184.147      789.06446    
      4000   647.98512      654.70017      1832.0059      31414.724      31396.894      71556.707      798.76336    
      4100   647.98512      654.70017      1831.2398      32383.042      32366.606      72924.73       808.97872    
      4200   647.98512      654.70017      1830.7991      33346.56       33331.195      74274.192      818.51693    
      4300   647.98512      654.70017      1830.0905      34323.092      34306.241      75626.111      828.7213     
      4400   647.98512      654.70017      1829.3503      35303.246      35294.928      76978.173      837.98121    
      4500   647.98512      654.70017      1828.5733      36285.372      36281.062      78334.071      847.26976    
      4600   647.98512      654.70017      1827.7917      37269.289      37274.698      79701.104      856.70714    
      4700   647.98512      654.70017      1827.0234      38249.87       38264.414      81072.487      866.62164    
      4800   647.98512      654.70017      1826.2981      39231.298      39255.113      82427.872      876.43765    
      4900   647.98512      654.70017      1825.4761      40217.97       40253.442      83813.604      886.2638     
      5000   647.98512      654.70017      1824.7234      41196.496      41240.579      85199.7        895.72209    
      5100   647.98512      654.70017      1824.0881      42170.594      42224.717      86594.962      905.4771     
      5200   647.98512      654.70017      1823.3056      43157.518      43218.512      88000.833      915.3234     
      5300   647.98512      654.70017      1822.5333      44137.364      44201.259      89412.141      923.87577    
      5400   647.98512      654.70017      1821.6889      45133.309      45207.261      90837.616      934.45949    
      5500   647.98512      654.70017      1820.9121      46112.655      46189.914      92246.743      944.38849    
      5600   647.98512      654.70017      1820.226       47101.288      47178.458      93670.162      955.26336    
      5700   647.98512      654.70017      1819.4183      48096.611      48173.765      95103.13       964.98109    
      5800   647.98512      654.70017      1818.6915      49084.02       49157.988      96524.24       973.97769    
      5900   647.98512      654.70017      1817.9597      50086.706      50162.167      97968.869      984.86488    
      6000   647.98512      654.70017      1817.1724      51076.974      51147.051      99402.397      994.31888    
      6100   647.98512      654.70017      1816.3745      52071.383      52134.87       100852.91      1004.7478    
      6200   647.98512      654.70017      1815.6417      53056.941      53120.125      102306.74      1015.5801    
      6300   647.98512      654.70017      1814.8268      54039.582      54096.654      103764.91      1027.5333    
      6400   647.98512      654.70017      1814.0502      55026.469      55086.385      105231.74      1038.8024    
      6500   647.98512      654.70017      1813.3455      56052.06       56111.119      106733.07      1046.814     
      6600   647.98512      654.70017      1812.5424      57021.756      57083.444      108186.36      1052.6509    
      6700   647.98512      654.70017      1811.7835      58054.915      58120.05       109713.6       1065.2829    
      6800   647.98512      654.70017      1811.398       59074.008      59137.349      111211.16      1076.6616    
      6900   647.98512      654.70017      1810.5615      59853.495      59909.469      112487.8       1072.265     
      7000   647.98512      654.70017      1809.8774      61038.986      61091.711      114168.4       1133.6338    
      7100   647.98512      654.70017      1809.0548      61859.686      61911.615      115514.28      1094.6911    
      7200   647.98512      654.70017      1808.2343      63027.457      63081.529      117205.07      1117.1515    
      7300   647.98512      654.70017      1807.482       63971.475      64030.548      118691.87      1124.2954    
      7400   647.98512      654.70017      1806.6752      64932.595      64996.524      120192.57      1137.1745    
      7500   647.98512      654.70017      1805.9446      65907.642      65969.336      121717.78      1147.7961    
      7600   647.98512      654.70017      1805.1819      66870.061      66939.143      123245.33      1161.2981    
      7700   647.98512      654.70017      1804.5192      67828.643      67907.25       124780.88      1169.2698    
      7800   647.98512      654.70017      1803.7543      68820.765      68907.375      126364.54      1179.0612    
      7900   647.98512      654.70017      1803.0152      69774.344      69880.669      127926.27      1187.5626    
      8000   647.98512      654.70017      1802.3014      70738.263      70849.705      129503.6       1197.5228    
      8100   647.98512      654.70017      1801.4511      71711.306      71827.642      131103.75      1208.7364    
      8200   647.98512      654.70017      1800.7184      72660.566      72784.486      132676.61      1217.3643    
      8300   647.98512      654.70017      1799.9681      73634.531      73759.23       134273.06      1228.6925    
      8400   647.98512      654.70017      1799.2147      74589.081      74719.245      135861.15      1237.9966    
      8500   647.98512      654.70017      1798.3882      75565.797      75690.591      137467.33      1248.1066    
      8600   647.98512      654.70017      1797.6749      76531.934      76651.837      139070.32      1257.4684    
      8700   647.98512      654.70017      1797.0238      77485.656      77607.462      140677.17      1267.3326    
      8800   647.98512      654.70017      1796.1831      78448.887      78567.031      142296.82      1277.7632    
      8900   647.98512      654.70017      1795.4392      79410.984      79524.313      143921.79      1288.222     
      9000   647.98512      654.70017      1794.6676      80373.871      80474.119      145545.53      1297.8111    
      9100   647.98512      654.70017      1793.9031      81329.017      81428.727      147184.5       1307.7244    
      9200   647.98512      654.70017      1793.1278      82289.509      82381.268      148829.39      1317.7961    
      9300   647.98512      654.70017      1792.3261      83248.026      83333.458      150476.39      1327.5404    
      9400   647.98512      654.70017      1791.5638      84206.998      84288.402      152140.31      1337.8171    
      9500   647.98512      654.70017      1790.8695      85154.977      85229.001      153786.68      1347.6294    
      9600   647.98512      654.70017      1790.1085      86111.551      86178.145      155447.98      1358.102     
      9700   647.98512      654.70017      1789.3662      87064.182      87122.795      157113.87      1368.2444    
      9800   647.98512      654.70017      1788.7418      88014.12       88068.17       158770.66      1378.2156    
      9900   647.98512      654.70017      1787.9464      88976.862      89017.976      160444.82      1388.3738    
     10000   647.98512      654.70017      1787.2235      89922.205      89958.687      162122.98      1398.475     
     10100   647.98512      654.70017      1786.5131      90876.064      90904.722      163800.22      1409.0416    
     10200   647.98512      654.70017      1785.7237      91834.803      91857.733      165473.78      1419.2887    
     10300   647.98512      654.70017      1784.9667      92793.314      92799.178      167152.94      1429.4715    
     10400   647.98512      654.70017      1784.2489      93750.578      93751.54       168835.99      1440.0774    
     10500   647.98512      654.70017      1783.4254      94712.252      94707.199      170529.96      1450.2269    
     10600   647.98512      654.70017      1782.6807      95671.781      95654.798      172215.2       1460.69      
     10700   647.98512      654.70017      1781.9487      96635.371      96613.797      173906.69      1470.9702    
     10800   647.98512      654.70017      1781.225       97600.586      97565.015      175592.94      1481.5262    
     10900   647.98512      654.70017      1780.4778      98561.465      98525.788      177284.68      1492.0377    
     11000   647.98512      654.70017      1779.735       99527.63       99485.335      178967.53      1502.776     
     11100   647.98512      654.70017      1778.9687      100493.03      100441.68      180662.64      1513.1539    
     11200   647.98512      654.70017      1778.2359      101456.27      101403.11      182354.9       1523.8291    
     11300   647.98512      654.70017      1777.4651      102421.32      102363.03      184061.73      1534.3219    
     11400   647.98512      654.70017      1776.6766      103391.41      103323.96      185776.83      1544.7754    
     11500   647.98512      654.70017      1775.944       104344.02      104280.52      187490.1       1555.4617    
     11600   647.98512      654.70017      1775.2126      105299.48      105244.15      189200.35      1566.0703    
     11700   647.98512      654.70017      1774.4877      106265.01      106205.07      190918.14      1576.8801    
     11800   647.98512      654.70017      1773.7829      107229.47      107164.88      192619.52      1587.3821    
     11900   647.98512      654.70017      1773.0586      108197.59      108132         194336.99      1598.1875    
     12000   647.98512      654.70017      1772.3461      109163.99      109093.26      196046.91      1608.8214    
     12100   647.98512      654.70017      1771.6131      110135.76      110060.62      197765.7       1619.4587    
     12200   647.98512      654.70017      1770.869       111100.83      111026.98      199493.02      1630.2716    
     12300   647.98512      654.70017      1770.0877      112070.82      111998.92      201222.26      1641.0428    
     12400   647.98512      654.70017      1769.3769      113035.44      112973.95      202946.25      1652.0586    
     12500   647.98512      654.70017      1768.5854      114011.26      113952.5       204678.22      1662.8458    
     12600   647.98512      654.70017      1767.8601      114979.49      114931.63      206406.21      1673.7455    
     12700   647.98512      654.70017      1767.1315      115951.92      115903.91      208141.56      1684.5322    
     12800   647.98512      654.70017      1766.3719      116934.05      116877.99      209876.52      1695.4605    
     12900   647.98512      654.70017      1765.2499      117931.51      117879         211651.55      1706.3164    
     13000   647.98512      654.70017      1764.8628      118885.43      118839.56      213346.51      1717.3093    
     13100   647.98512      654.70017      1764.0913      119861.04      119820.62      215086.12      1728.2215    
     13200   647.98512      654.70017      1763.3497      120841.58      120798.68      216826.32      1739.255     
     13300   647.98512      654.70017      1762.5559      121829.42      121779.66      218572.96      1750.0292    
     13400   647.98512      654.70017      1761.8137      122812.19      122760.41      220317.11      1761.0294    
     13500   647.98512      654.70017      1761.0902      123790.43      123739.69      222058.44      1771.9457    
     13600   647.98512      654.70017      1760.2876      124778.66      124721.28      223813.99      1782.8373    
     13700   647.98512      654.70017      1759.3115      125786.54      125712.49      225602.5       1793.9417    
     13800   647.98512      654.70017      1758.579       126770.67      126692.72      227361.14      1804.8563    
     13900   647.98512      654.70017      1757.9523      127749.02      127663.24      229101.65      1815.8471    
     14000   647.98512      654.70017      1757.1077      128753.6       128658.94      230858.92      1826.6265    
     14100   647.98512      654.70017      1756.2841      129743.99      129650.83      232625.5       1837.675     
     14200   647.98512      654.70017      1755.6003      130727.15      130636.09      234371.68      1848.6263    
     14300   647.98512      654.70017      1754.9351      131713.04      131619.15      236117.16      1859.4323    
     14400   647.98512      654.70017      1754.1385      132712.77      132616.08      237878.63      1870.5796    
     14500   647.98512      654.70017      1753.3639      133709.37      133611.62      239641.94      1881.2196    
     14600   647.98512      654.70017      1752.5908      134707.31      134612.32      241401.88      1892.2937    
     14700   647.98512      654.70017      1751.8656      135698.47      135608.46      243156.9       1903.019     
     14800   647.98512      654.70017      1751.1115      136696.17      136610.4       244914.63      1914.0698    
     14900   647.98512      654.70017      1750.3713      137687.89      137603.66      246679.99      1924.7548    
     15000   647.98512      654.70017      1749.6291      138678.65      138601.92      248442.16      1935.8642    
     15100   647.98512      654.70017      1748.8661      139675.82      139602.4       250198.6       1946.6762    
     15200   647.98512      654.70017      1748.1249      140670.95      140596.05      251957.06      1957.8544    
     15300   647.98512      654.70017      1747.3857      141664.67      141587.43      253705.96      1968.6402    
     15400   647.98512      654.70017      1746.6461      142654.94      142586.35      255468.26      1979.8306    
     15500   647.98512      654.70017      1745.9764      143642.9       143574.88      257208.65      1990.7932    
     15600   647.98512      654.70017      1745.3261      144631.42      144564.72      258949.03      2001.8669    
     15700   647.98512      654.70017      1744.5447      145631.97      145558.63      260710.85      2012.9455    
     15800   647.98512      654.70017      1743.4511      146651.39      146587.49      262525.59      2023.9373    
     15900   647.98512      654.70017      1742.8181      147635.5       147579.17      264267.86      2034.9758    
     16000   647.98512      654.70017      1742.1249      148629.91      148559.84      266020.27      2045.9687    
     16100   647.98512      654.70017      1741.4433      149624.35      149556.51      267778.01      2056.9877    
     16200   647.98512      654.70017      1740.7336      150620.81      150542.54      269539.73      2068.0337    
     16300   647.98512      654.70017      1739.7957      151636.26      151549.64      271339.63      2078.9973    
     16400   647.98512      654.70017      1739.078       152630.64      152539.13      273105.5       2090.0273    
     16500   647.98512      654.70017      1738.3905      153624.12      153534.01      274872.57      2100.9949    
     16600   647.98512      654.70017      1737.7166      154614.77      154518.49      276638.7       2112.0193    
     16700   647.98512      654.70017      1736.9971      155609.06      155520.07      278411.32      2123.0157    
     16800   647.98512      654.70017      1736.0517      156628.17      156532.95      280226.18      2133.9283    
     16900   647.98512      654.70017      1735.347       157623.15      157533.08      282001.52      2144.914     
     17000   647.98512      654.70017      1734.6895      158614.42      158518.24      283771.93      2155.9844    
     17100   647.98512      654.70017      1733.7432      159633.3       159541         285599.18      2167.0333    
     17200   647.98512      654.70017      1733.1617      160623.51      160522.81      287367.58      2178.0541    
     17300   647.98512      654.70017      1732.5169      161616.39      161516.66      289134.77      2189.0261    
     17400   647.98512      654.70017      1731.5482      162632.56      162547.23      290965.28      2200.1413    
     17500   647.98512      654.70017      1731.0156      163621.3       163529.71      292735.39      2211.1493    
     17600   647.98512      654.70017      1730.1437      164639.74      164548.71      294554.79      2222.1294    
     17700   647.98512      654.70017      1729.377       165646.61      165554.88      296362.76      2233.0505    
     17800   647.98512      654.70017      1728.5228      166664.47      166583.55      298186.7       2244.0981    
     17900   647.98512      654.70017      1727.7842      167686.02      167594.16      299983.3       2255.0656    
     18000   647.98512      654.70017      1727.0943      168690.55      168602.15      301778.5       2266.2689    
     18100   647.98512      654.70017      1726.4536      169699.92      169605.67      303560.42      2277.0155    
     18200   647.98512      654.70017      1725.6729      170723.17      170630.63      305388.95      2288.1718    
     18300   647.98512      654.70017      1724.8143      171757.58      171659.29      307217.57      2299.0802    
     18400   647.98512      654.70017      1724.0384      172775.16      172682.92      309051.1       2310.3354    
     18500   647.98512      654.70017      1723.2633      173805.67      173708.44      310875.61      2321.0899    
     18600   647.98512      654.70017      1722.5811      174830.38      174724.14      312695.73      2332.1171    
     18700   647.98512      654.70017      1721.898       175865.6       175747.42      314500.08      2343.0351    
     18750   647.98512      654.70017      1721.4086      176394.38      176287.31      315432.84      2348.2196    
Loop time of 16519.5 on 200 procs for 18750 steps with 43672908 atoms

Performance: 0.098 ns/day, 244.734 hours/ns, 1.135 timesteps/s
99.2% CPU use with 200 MPI tasks x 1 OpenMP threads

MPI task timing breakdown:
Section |  min time  |  avg time  |  max time  |%varavg| %total
---------------------------------------------------------------
Pair    | 6562.7     | 8271.2     | 10734      |1238.8 | 50.07
Neigh   | 177.04     | 207.31     | 253.2      | 124.5 |  1.25
Comm    | 1028.4     | 2217.8     | 3309       | 941.8 | 13.43
Output  | 2282.2     | 3311.5     | 4310.5     |1008.9 | 20.05
Modify  | 101.4      | 163.98     | 268.8      | 358.8 |  0.99
Other   |            | 2348       |            |       | 14.21

Nlocal:         218365 ave      243335 max      201268 min
Histogram: 100 0 0 0 0 10 35 15 0 40
Nghost:        69356.7 ave       78683 max       56120 min
Histogram: 20 0 0 20 40 40 0 7 51 22
Neighs:    1.07673e+07 ave 1.35722e+07 max  8.7104e+06 min
Histogram: 100 0 0 0 0 0 20 40 0 40

Total # of neighbors = 2.1534552e+09
Ave neighs/atom = 49.30872
Neighbor list builds = 395
Dangerous builds = 0
Deleted 257053 atoms, new total = 43415855
Setting up Verlet run ...
  Unit style    : metal
  Current step  : 18750
  Time step     : 0.001
Per MPI rank memory allocation (min/avg/max) = 326.7 | 343.1 | 361.8 Mbytes
   Step           Lx             Ly             Lz            Pxx            Pyy            Pzz            Temp     
     18750   647.98512      654.70017      1711.182       176673.02      176565.92      315488.06      2337.9626    
     18800   647.98512      654.70017      1710.8206      177059.89      176947.28      315974.23      2335.6377    
     18900   647.98512      654.70017      1710.9222      177230.79      177098.78      316091.36      2334.3545    
     19000   647.98512      654.70017      1710.982       177167.01      177023.02      315975.57      2333.4325    
     19100   647.98512      654.70017      1711.0792      177083.58      176953.92      315758.87      2332.045     
     19200   647.98512      654.70017      1711.1978      177049.36      176916.31      315584.66      2330.6264    
     19300   647.98512      654.70017      1711.2128      177047.05      176918.02      315455.31      2329.1319    
     19400   647.98512      654.70017      1711.4034      176997.93      176866.31      315316.01      2327.9347    
     19500   647.98512      654.70017      1711.4907      176941.98      176812.23      315171.92      2326.4587    
     19600   647.98512      654.70017      1711.5116      176905.84      176772.47      315045.97      2325.3546    
     19700   647.98512      654.70017      1711.7754      176851.33      176715.9       314901.71      2323.6744    
     19800   647.98512      654.70017      1712.0203      176777.37      176652.54      314748.99      2322.7162    
     19900   647.98512      654.70017      1712.3468      176695.03      176562.82      314584.5       2321.1957    
     20000   647.98512      654.70017      1712.1376      176671.07      176541.87      314525.24      2319.9505    
     20100   647.98512      654.70017      1712.0553      176619.92      176499.56      314455.88      2318.8695    
     20200   647.98512      654.70017      1712.5545      176514.1       176396.12      314276.08      2317.3807    
     20300   647.98512      654.70017      1712.7116      176433.19      176312.36      314143.92      2316.7658    
     20400   647.98512      654.70017      1712.6144      176389.33      176271.5       314101.63      2315.0109    
     20500   647.98512      654.70017      1712.6056      176321.58      176197.86      314004.31      2314.5635    
     20600   647.98512      654.70017      1712.6573      176258.65      176121.45      313939.96      2312.91      
     20700   647.98512      654.70017      1712.894       176162.38      176020.45      313812.49      2312.4877    
     20800   647.98512      654.70017      1712.9693      176086.96      175933.63      313736.08      2311.6074    
     20900   647.98512      654.70017      1712.6292      176054.59      175906.73      313742.64      2310.139     
     21000   647.98512      654.70017      1712.4792      175985.54      175843.38      313667.77      2309.9416    
     21100   647.98512      654.70017      1712.5059      175905.54      175761.78      313608.61      2308.6355    
     21200   647.98512      654.70017      1712.5839      175812.06      175660.19      313529.22      2307.884     
     21300   647.98512      654.70017      1712.5414      175720.01      175566.24      313459.98      2307.2462    
     21400   647.98512      654.70017      1712.5676      175639.82      175479.81      313406.29      2306.0474    
     21500   647.98512      654.70017      1712.2951      175556.77      175410.34      313373.98      2305.6579    
     21600   647.98512      654.70017      1712.5108      175436.29      175293.84      313278.82      2304.949     
     21700   647.98512      654.70017      1712.4167      175344.2       175206.67      313235.77      2303.9424    
     21800   647.98512      654.70017      1712.313       175252.58      175108.36      313170.52      2303.585     
     21900   647.98512      654.70017      1712.6715      175114.79      174978.09      313042.55      2302.8268    
     22000   647.98512      654.70017      1712.7293      174987.49      174858.25      312940.4       2302.371     
     22100   647.98512      654.70017      1712.4781      174907.51      174791.91      312907.68      2301.47      
     22200   647.98512      654.70017      1712.5537      174789.94      174670.42      312796.41      2301.4299    
     22300   647.98512      654.70017      1712.7312      174665.65      174548.92      312685.91      2300.4588    
     22400   647.98512      654.70017      1712.7363      174545.29      174437.38      312592.56      2300.6426    
     22500   647.98512      654.70017      1712.4961      174457.41      174352.77      312549.33      2299.8293    
     22600   647.98512      654.70017      1712.3651      174358.14      174247.82      312470.6       2299.7005    
     22700   647.98512      654.70017      1712.4528      174233.17      174124.83      312336.14      2299.4204    
     22800   647.98512      654.70017      1712.3533      174136.67      174017.47      312271.68      2298.8009    
     22900   647.98512      654.70017      1712.4911      174005.43      173873.87      312104.4       2299.0916    
     23000   647.98512      654.70017      1712.8105      173863.46      173738.23      311959.76      2298.1259    
     23100   647.98512      654.70017      1712.5903      173765.47      173621.78      311865.12      2298.2935    
     23200   647.98512      654.70017      1712.6413      173662.44      173505.13      311743.34      2297.6559    
     23300   647.98512      654.70017      1713.1643      173491.99      173343.56      311542.01      2297.489     
     23400   647.98512      654.70017      1713.121       173378.48      173222.88      311402.37      2297.6445    
     23500   647.98512      654.70017      1712.9237      173295.69      173126.63      311343.15      2296.8675    
     23600   647.98512      654.70017      1713.1929      173159.83      172982.52      311157.75      2296.9663    
     23700   647.98512      654.70017      1713.2159      173048.86      172868.15      311026.01      2296.5823    
     23800   647.98512      654.70017      1713.1628      172935.01      172755.68      310913.97      2296.385     
     23900   647.98512      654.70017      1712.8572      172853.41      172662.83      310832.92      2296.3437    
     24000   647.98512      654.70017      1713.1105      172731.82      172532.3       310647.37      2296.1086    
     24100   647.98512      654.70017      1712.9512      172647.52      172434.51      310535.75      2295.8494    
     24200   647.98512      654.70017      1713.3201      172517.67      172299.47      310321.33      2295.6114    
     24300   647.98512      654.70017      1713.1518      172424.96      172228.47      310192.29      2295.3911    
     24400   647.98512      654.70017      1713.118       172333.76      172137.51      310038.57      2295.3387    
     24500   647.98512      654.70017      1712.8237      172266.47      172081.99      309930.35      2295.1157    
     24600   647.98512      654.70017      1712.8228      172169.32      171995.08      309768.8       2294.6827    
     24700   647.98512      654.70017      1712.5636      172111.87      171940.03      309637.37      2294.5939    
     24800   647.98512      654.70017      1712.9404      171984.36      171822.34      309405.75      2294.2902    
     24900   647.98512      654.70017      1712.9092      171901.37      171737.64      309242.63      2294.2243    
     25000   647.98512      654.70017      1713.1111      171793.48      171633.28      309028.79      2294.1636    
     25100   647.98512      654.70017      1713.716       171662.45      171488.63      308741.82      2293.9784    
     25200   647.98512      654.70017      1713.543       171602.16      171428.69      308595.67      2293.9261    
     25300   647.98512      654.70017      1713.1813      171560.93      171384.52      308477.3       2293.6637    
     25400   647.98512      654.70017      1713.2966      171481.53      171292.06      308264.76      2293.6941    
     25500   647.98512      654.70017      1713.2427      171414.54      171228.71      308076.47      2293.6323    
     25600   647.98512      654.70017      1713.1954      171356.48      171155.94      307881.27      2293.515     
     25700   647.98512      654.70017      1713.3607      171276.46      171070.5       307652.33      2293.6674    
     25800   647.98512      654.70017      1713.4799      171206.79      170988.29      307418.19      2293.618     
     25900   647.98512      654.70017      1713.8807      171099.12      170885.01      307127.07      2293.615     
     26000   647.98512      654.70017      1713.9258      171040.48      170824.48      306893.51      2293.7879    
     26100   647.98512      654.70017      1713.5822      171016.37      170799.08      306728.02      2293.841     
     26200   647.98512      654.70017      1713.6517      170960.23      170742.46      306476.25      2294.1118    
     26300   647.98512      654.70017      1713.9354      170879.78      170668.15      306176.28      2294.0383    
     26400   647.98512      654.70017      1714.1044      170824.85      170600.81      305900.76      2294.2803    
     26500   647.98512      654.70017      1713.9395      170790.11      170572.7       305680.79      2294.383     
     26600   647.98512      654.70017      1713.6479      170783.24      170546.06      305477.43      2294.5726    
     26700   647.98512      654.70017      1713.4943      170760.58      170519.13      305254.22      2294.8016    
     26800   647.98512      654.70017      1713.7007      170697.99      170454.54      304961.58      2294.8629    
     26900   647.98512      654.70017      1713.9604      170641.5       170379.19      304651         2295.0226    
     27000   647.98512      654.70017      1713.6851      170632.51      170367.42      304440.29      2295.0562    
     27100   647.98512      654.70017      1713.5914      170621.67      170331.07      304186.46      2295.1581    
     27200   647.98512      654.70017      1713.559       170600.65      170309.05      303905.91      2295.3023    
     27300   647.98512      654.70017      1713.5061      170598.08      170281.12      303631.3       2295.4985    
     27400   647.98512      654.70017      1713.4979      170585.34      170258.6       303338.99      2295.7997    
     27500   647.98512      654.70017      1713.5321      170580.44      170240.05      303023.1       2295.7536    
     27600   647.98512      654.70017      1713.3994      170585.33      170240.88      302749.29      2295.7219    
     27700   647.98512      654.70017      1713.1293      170614.33      170259.64      302493.72      2295.8796    
     27800   647.98512      654.70017      1713.3677      170593.16      170235.24      302138.25      2295.8946    
     27900   647.98512      654.70017      1713.3916      170608.97      170244.07      301811.08      2296.0211    
     28000   647.98512      654.70017      1713.4334      170631.19      170258.35      301472.92      2295.9707    
     28100   647.98512      654.70017      1713.382       170660.01      170285.24      301148.03      2296.1322    
     28200   647.98512      654.70017      1713.1179      170719.84      170338.92      300870.5       2296.1293    
     28300   647.98512      654.70017      1713.4694      170725.67      170332.84      300480.61      2295.8652    
     28400   647.98512      654.70017      1713.513       170758.96      170368.6       300142.53      2295.8897    
     28500   647.98512      654.70017      1713.4317      170806.88      170421.51      299832.72      2295.7501    
     28600   647.98512      654.70017      1713.664       170831.13      170449.82      299457.11      2295.6569    
     28700   647.98512      654.70017      1713.4543      170894.6       170522.11      299175.16      2295.3744    
     28800   647.98512      654.70017      1713.1995      170966.07      170596.24      298914.99      2295.1347    
     28900   647.98512      654.70017      1713.3608      171000.66      170636.13      298588.06      2294.8524    
     29000   647.98512      654.70017      1713.3207      171054.45      170688.63      298309.85      2294.375     
     29100   647.98512      654.70017      1713.3829      171097.76      170740.4       298038.17      2293.8356    
     29200   647.98512      654.70017      1713.2539      171156.68      170801.12      297813.78      2293.3891    
     29300   647.98512      654.70017      1713.2292      171216.81      170856.2       297573.2       2292.7571    
     29400   647.98512      654.70017      1713.2209      171265.36      170908.1       297343.87      2292.1624    
     29500   647.98512      654.70017      1713.4836      171289.53      170927.29      297075.6       2291.4209    
     29600   647.98512      654.70017      1713.77        171314.85      170951.76      296805.1       2290.6772    
     29700   647.98512      654.70017      1713.5017      171393.05      171020.47      296652.04      2289.8668    
     29800   647.98512      654.70017      1713.3637      171459.73      171083.23      296476.73      2288.9389    
     29900   647.98512      654.70017      1713.6359      171463.87      171103.55      296251.8       2287.8585    
     30000   647.98512      654.70017      1714.2727      171447.27      171070.24      295977.3       2287.0372    
Loop time of 10133 on 200 procs for 11250 steps with 43415855 atoms

Performance: 0.096 ns/day, 250.196 hours/ns, 1.110 timesteps/s
99.2% CPU use with 200 MPI tasks x 1 OpenMP threads

MPI task timing breakdown:
Section |  min time  |  avg time  |  max time  |%varavg| %total
---------------------------------------------------------------
Pair    | 4447.8     | 5520.9     | 6509.5     | 778.6 | 54.48
Neigh   | 106.74     | 131.36     | 158.51     | 107.1 |  1.30
Comm    | 705.85     | 1429.7     | 2185.9     | 798.3 | 14.11
Output  | 1359.5     | 1921.6     | 2484.2     | 736.5 | 18.96
Modify  | 55.779     | 138.09     | 220.37     | 383.2 |  1.36
Other   |            | 991.3      |            |       |  9.78

Nlocal:         217079 ave      235822 max      194727 min
Histogram: 20 20 18 22 20 0 0 25 55 20
Nghost:        67853.9 ave       78202 max       51651 min
Histogram: 20 20 0 0 8 31 3 57 40 21
Neighs:     1.0748e+07 ave 1.30268e+07 max 8.58113e+06 min
Histogram: 40 16 24 16 4 0 13 48 24 15

Total # of neighbors = 2.1495926e+09
Ave neighs/atom = 49.511696
Neighbor list builds = 246
Dangerous builds = 0
Total wall time: 7:49:50
