LAMMPS (23 Jun 2022 - Update 1)
OMP_NUM_THREADS environment is not set. Defaulting to 1 thread. (src/comm.cpp:98)
  using 1 OpenMP thread(s) per MPI task
OMP_NUM_THREADS environment is not set. Defaulting to 1 thread. (src/comm.cpp:98)
  using 1 OpenMP thread(s) per MPI task
Reading restart file ...
  restart file = 23 Jun 2022, LAMMPS = 23 Jun 2022
WARNING: Restart file used different # of processors: 64 vs. 80 (src/read_restart.cpp:654)
  restoring atom style atomic from restart
  orthogonal box = (-0.74132588 -0.82087201 -52.744824) to (400.74133 400.82087 1252.7448)
  2 by 4 by 10 MPI processor grid
  pair style eam/alloy stores no restart info
  11595345 atoms
  read_restart CPU = 11.976 seconds
Changing box ...
  orthogonal box = (-0.74132588 -0.82087201 -52.744824) to (400.74133 400.82087 1252.7448)
  orthogonal box = (-0.74132588 -0.82087201 -52.744824) to (400.74133 400.82087 1252.7448)
  orthogonal box = (-0.74132588 -0.82087201 -52.744824) to (400.74133 400.82087 1252.7448)
Changing box ...
Unused restart file global fix info:
  fix style: npt, fix ID: equilibration
Neighbor list info ...
  update every 1 steps, delay 10 steps, check yes
  max neighbors/atom: 2000, page size: 100000
  master list distance cutoff = 8.875
  ghost atom cutoff = 8.875
  binsize = 4.4375, bins = 91 91 273
  1 neighbor lists, perpetual/occasional/extra = 1 0 0
  (1) pair eam/alloy, perpetual
      attributes: half, newton on
      pair build: half/bin/atomonly/newton
      stencil: half/bin/3d
      bin: standard
Setting up Verlet run ...
  Unit style    : metal
  Current step  : 0
  Time step     : 0.001
Per MPI rank memory allocation (min/avg/max) = 187.6 | 193.2 | 196 Mbytes
   Step           Lx             Ly             Lz           TotEng    
         0   401.48265      401.64174      1207.1876     -37939826     
       100   401.48265      401.64174      1206.2188     -37939122     
       200   401.48265      401.64174      1204.9029     -37924345     
       300   401.48265      401.64174      1203.5654     -37896713     
       400   401.48265      401.64174      1202.4226     -37867456     
       500   401.48265      401.64174      1201.2465     -37837844     
       600   401.48265      401.64174      1200.073      -37808354     
       700   401.48265      401.64174      1199.0093     -37778900     
       800   401.48265      401.64174      1197.9446     -37749384     
       900   401.48265      401.64174      1196.6183     -37720047     
SHOCK: step 1000 t 1 zpos 8.2685974485198 vz 12 az 4.4901779924200145e+33 zlo 8.126053513559615
      1000   401.48265      401.64174      1195.5632     -37690954     
      1100   401.48265      401.64174      1194.0548     -37662195     
      1200   401.48265      401.64174      1192.9886     -37633373     
      1300   401.48265      401.64174      1191.624      -37604869     
      1400   401.48265      401.64174      1190.3053     -37576605     
      1500   401.48265      401.64174      1189.2781     -37548494     
      1600   401.48265      401.64174      1188.0603     -37520353     
      1700   401.48265      401.64174      1186.8151     -37492560     
      1800   401.48265      401.64174      1185.7575     -37464932     
      1900   401.48265      401.64174      1184.4336     -37437361     
SHOCK: step 2000 t 2 zpos 20.2685974485198 vz 12 az 4.4901779924200145e+33 zlo 20.126066350044216
      2000   401.48265      401.64174      1183.2107     -37409959     
      2100   401.48265      401.64174      1182.1928     -37382570     
      2200   401.48265      401.64174      1180.9983     -37355327     
      2300   401.48265      401.64174      1179.793      -37328259     
      2400   401.48265      401.64174      1178.4623     -37301229     
      2500   401.48265      401.64174      1177.2121     -37274353     
      2600   401.48265      401.64174      1176.133      -37247468     
      2700   401.48265      401.64174      1174.8162     -37220504     
      2800   401.48265      401.64174      1173.7179     -37193576     
      2900   401.48265      401.64174      1172.5654     -37166596     
SHOCK: step 3000 t 3 zpos 32.2685974485198 vz 12 az 4.4901779924200145e+33 zlo 32.126050218753015
      3000   401.48265      401.64174      1171.4059     -37139392     
      3100   401.48265      401.64174      1170.0657     -37112168     
      3200   401.48265      401.64174      1168.8783     -37084988     
      3300   401.48265      401.64174      1167.7647     -37057696     
      3400   401.48265      401.64174      1166.3961     -37030230     
      3500   401.48265      401.64174      1165.3109     -37002781     
      3600   401.48265      401.64174      1164.134      -36975246     
      3700   401.48265      401.64174      1162.9378     -36947653     
      3800   401.48265      401.64174      1161.7595     -36920160     
      3900   401.48265      401.64174      1160.4623     -36892768     
SHOCK: step 4000 t 4 zpos 44.2685974485198 vz 12 az 4.4901779924200145e+33 zlo 44.12605339216183
      4000   401.48265      401.64174      1159.3983     -36865378     
      4100   401.48265      401.64174      1158.0681     -36837993     
      4200   401.48265      401.64174      1156.8462     -36810674     
      4300   401.48265      401.64174      1155.7611     -36783462     
      4400   401.48265      401.64174      1154.4488     -36756150     
      4500   401.48265      401.64174      1153.431      -36728887     
      4600   401.48265      401.64174      1152.1227     -36701574     
      4700   401.48265      401.64174      1150.9545     -36674350     
      4800   401.48265      401.64174      1149.717      -36647212     
      4900   401.48265      401.64174      1148.5913     -36620022     
SHOCK: step 5000 t 5 zpos 56.2685974485198 vz 12 az 4.4901779924200145e+33 zlo 56.126050400946404
      5000   401.48265      401.64174      1147.5051     -36592496     
      5100   401.48265      401.64174      1146.0881     -36565044     
      5200   401.48265      401.64174      1145.1047     -36537620     
      5300   401.48265      401.64174      1143.6958     -36510315     
      5400   401.48265      401.64174      1142.4964     -36482918     
      5500   401.48265      401.64174      1141.5344     -36455507     
      5600   401.48265      401.64174      1140.183      -36428126     
      5700   401.48265      401.64174      1138.9783     -36400649     
      5800   401.48265      401.64174      1137.9175     -36373147     
      5900   401.48265      401.64174      1136.6194     -36345599     
SHOCK: step 6000 t 6 zpos 68.2685974485198 vz 12 az 4.4901779924200145e+33 zlo 68.12604961291699
      6000   401.48265      401.64174      1135.3534     -36318018     
      6100   401.48265      401.64174      1134.1315     -36290398     
      6200   401.48265      401.64174      1133.0142     -36262718     
      6300   401.48265      401.64174      1131.8156     -36235089     
      6400   401.48265      401.64174      1130.5464     -36207410     
      6500   401.48265      401.64174      1129.2805     -36179594     
      6600   401.48265      401.64174      1128.2348     -36151779     
      6700   401.48265      401.64174      1126.8929     -36123983     
      6800   401.48265      401.64174      1125.9217     -36096109     
      6900   401.48265      401.64174      1124.6504     -36068286     
SHOCK: step 7000 t 7 zpos 80.2685974485198 vz 12 az 4.4901779924200145e+33 zlo 80.12605457221429
      7000   401.48265      401.64174      1123.4616     -36040295     
      7100   401.48265      401.64174      1122.1518     -36012364     
      7200   401.48265      401.64174      1121.1364     -35984512     
      7300   401.48265      401.64174      1119.7562     -35956562     
      7400   401.48265      401.64174      1118.5512     -35928842     
      7500   401.48265      401.64174      1117.266      -35901039     
      7600   401.48265      401.64174      1116.2061     -35873211     
      7700   401.48265      401.64174      1115.2999     -35845642     
      7800   401.48265      401.64174      1113.7783     -35818233     
      7900   401.48265      401.64174      1112.597      -35790761     
SHOCK: step 8000 t 8 zpos 92.2685974485198 vz 12 az 4.4901779924200145e+33 zlo 92.12605199655762
      8000   401.48265      401.64174      1111.2989     -35763346     
      8100   401.48265      401.64174      1110.0721     -35735864     
      8200   401.48265      401.64174      1109.056      -35708549     
      8300   401.48265      401.64174      1108.0921     -35681316     
      8400   401.48265      401.64174      1106.6154     -35653946     
      8500   401.48265      401.64174      1105.3919     -35626777     
      8600   401.48265      401.64174      1104.2629     -35599498     
      8700   401.48265      401.64174      1103.2376     -35572317     
      8800   401.48265      401.64174      1101.8587     -35545304     
      8900   401.48265      401.64174      1100.6728     -35518119     
SHOCK: step 9000 t 9 zpos 104.2685974485198 vz 12 az 4.4901779924200145e+33 zlo 104.12605026130834
      9000   401.48265      401.64174      1099.4359     -35490850     
      9100   401.48265      401.64174      1098.212      -35463676     
      9200   401.48265      401.64174      1097.1241     -35436277     
      9300   401.48265      401.64174      1096.1616     -35408824     
      9400   401.48265      401.64174      1094.9213     -35381038     
      9500   401.48265      401.64174      1093.7093     -35353114     
      9600   401.48265      401.64174      1092.7652     -35324996     
      9700   401.48265      401.64174      1091.4163     -35296896     
      9800   401.48265      401.64174      1090.4124     -35268654     
      9900   401.48265      401.64174      1089.2334     -35240354     
SHOCK: step 10000 t 10 zpos 116.2685974485198 vz 12 az 4.4901779924200145e+33 zlo 116.1260498568412
     10000   401.48265      401.64174      1087.9734     -35211846     
     10100   401.48265      401.64174      1086.7015     -35183355     
     10200   401.48265      401.64174      1085.6312     -35154700     
     10300   401.48265      401.64174      1084.4349     -35125981     
     10400   401.48265      401.64174      1083.0017     -35097208     
     10500   401.48265      401.64174      1081.6966     -35068455     
     10600   401.48265      401.64174      1080.9438     -35039804     
     10700   401.48265      401.64174      1079.4516     -35011011     
     10800   401.48265      401.64174      1078.1419     -34982402     
     10900   401.48265      401.64174      1077.0173     -34953935     
SHOCK: step 11000 t 11 zpos 128.2685974485198 vz 12 az 4.4901779924200145e+33 zlo 128.1260505324653
     11000   401.48265      401.64174      1075.5956     -34925490     
     11100   401.48265      401.64174      1074.7044     -34896974     
     11200   401.48265      401.64174      1073.2791     -34868724     
     11300   401.48265      401.64174      1072.3463     -34840556     
     11400   401.48265      401.64174      1071.1667     -34812516     
     11500   401.48265      401.64174      1069.8178     -34784681     
     11600   401.48265      401.64174      1068.7773     -34756832     
     11700   401.48265      401.64174      1067.7541     -34729132     
     11800   401.48265      401.64174      1066.3299     -34701594     
     11900   401.48265      401.64174      1064.8055     -34674111     
SHOCK: step 12000 t 12 zpos 140.2685974485198 vz 12 az 4.4901779924200145e+33 zlo 140.12605007243658
     12000   401.48265      401.64174      1063.6202     -34646884     
     12100   401.48265      401.64174      1062.0853     -34619708     
     12200   401.48265      401.64174      1061.0512     -34592710     
     12300   401.48265      401.64174      1059.7815     -34565764     
     12400   401.48265      401.64174      1058.4645     -34539045     
     12500   401.48265      401.64174      1057.3979     -34512242     
     12600   401.48265      401.64174      1056.1914     -34485632     
     12700   401.48265      401.64174      1055.0775     -34459041     
     12800   401.48265      401.64174      1054.0199     -34432511     
     12900   401.48265      401.64174      1052.579      -34406106     
SHOCK: step 13000 t 13 zpos 152.2685974485198 vz 12 az 4.4901779924200145e+33 zlo 152.12605874996797
     13000   401.48265      401.64174      1051.5713     -34379629     
     13100   401.48265      401.64174      1050.5702     -34353100     
     13200   401.48265      401.64174      1049.6184     -34326610     
     13300   401.48265      401.64174      1048.6672     -34300256     
     13400   401.48265      401.64174      1046.9064     -34273914     
     13500   401.48265      401.64174      1045.7502     -34247436     
     13600   401.48265      401.64174      1044.6669     -34221118     
     13700   401.48265      401.64174      1043.3308     -34194684     
     13800   401.48265      401.64174      1042.0338     -34168210     
     13900   401.48265      401.64174      1040.9877     -34141837     
SHOCK: step 14000 t 14 zpos 164.2685974485198 vz 12 az 4.4901779924200145e+33 zlo 164.12605217199226
     14000   401.48265      401.64174      1039.8204     -34115425     
     14100   401.48265      401.64174      1038.7955     -34088846     
     14200   401.48265      401.64174      1037.7297     -34062300     
     14300   401.48265      401.64174      1036.3223     -34035598     
     14400   401.48265      401.64174      1034.7264     -34009017     
     14500   401.48265      401.64174      1033.6999     -33982352     
     14600   401.48265      401.64174      1032.5111     -33955419     
     14700   401.48265      401.64174      1031.146      -33928656     
     14800   401.48265      401.64174      1030.0252     -33901661     
     14900   401.48265      401.64174      1028.6875     -33874667     
SHOCK: step 15000 t 15 zpos 176.2685974485198 vz 12 az 4.4901779924200145e+33 zlo 176.12604996299382
     15000   401.48265      401.64174      1027.7565     -33847595     
     15100   401.48265      401.64174      1026.3024     -33820557     
     15200   401.48265      401.64174      1025.017      -33793251     
     15300   401.48265      401.64174      1023.6008     -33765909     
     15400   401.48265      401.64174      1022.6484     -33738506     
     15500   401.48265      401.64174      1021.7476     -33710968     
     15600   401.48265      401.64174      1020.537      -33683335     
     15700   401.48265      401.64174      1019.3208     -33655698     
     15800   401.48265      401.64174      1018.0336     -33627872     
     15900   401.48265      401.64174      1016.8344     -33600080     
SHOCK: step 16000 t 16 zpos 188.2685974485198 vz 12 az 4.4901779924200145e+33 zlo 188.12604877451915
     16000   401.48265      401.64174      1015.4125     -33572200     
     16100   401.48265      401.64174      1014.7799     -33544252     
     16200   401.48265      401.64174      1014.3852     -33516324     
     16300   401.48265      401.64174      1014.3644     -33488197     
     16400   401.48265      401.64174      1014.4855     -33460316     
     16500   401.48265      401.64174      1014.4973     -33432213     
     16600   401.48265      401.64174      1014.5166     -33404185     
     16700   401.48265      401.64174      1014.47       -33376194     
     16800   401.48265      401.64174      1014.5476     -33348071     
     16900   401.48265      401.64174      1014.6628     -33320187     
SHOCK: step 17000 t 17 zpos 200.2685974485198 vz 12 az 4.4901779924200145e+33 zlo 200.1260504320552
     17000   401.48265      401.64174      1014.8159     -33292228     
     17100   401.48265      401.64174      1015.1058     -33264407     
     17200   401.48265      401.64174      1015.2728     -33236529     
     17300   401.48265      401.64174      1015.7998     -33208819     
     17400   401.48265      401.64174      1016.0543     -33181157     
     17500   401.48265      401.64174      1016.7941     -33153583     
     17600   401.48265      401.64174      1017.3955     -33126102     
     17700   401.48265      401.64174      1018.1971     -33098619     
     17800   401.48265      401.64174      1019.1178     -33071336     
     17900   401.48265      401.64174      1019.8783     -33043965     
SHOCK: step 18000 t 18 zpos 212.2685974485198 vz 12 az 4.4901779924200145e+33 zlo 212.1260495340872
     18000   401.48265      401.64174      1020.9959     -33016855     
     18100   401.48265      401.64174      1021.8398     -32989672     
     18200   401.48265      401.64174      1022.8032     -32962747     
     18300   401.48265      401.64174      1023.8406     -32935803     
     18400   401.48265      401.64174      1024.5953     -32908975     
     18500   401.48265      401.64174      1025.62       -32882165     
     18600   401.48265      401.64174      1026.57       -32855447     
     18700   401.48265      401.64174      1027.5494     -32828816     
     18800   401.48265      401.64174      1028.3638     -32802131     
     18900   401.48265      401.64174      1029.4545     -32775585     
SHOCK: step 19000 t 19 zpos 224.2685974485198 vz 12 az 4.4901779924200145e+33 zlo 224.12605063287725
     19000   401.48265      401.64174      1030.5711     -32749029     
     19100   401.48265      401.64174      1031.6544     -32722560     
     19200   401.48265      401.64174      1032.537      -32696093     
     19300   401.48265      401.64174      1033.5541     -32669495     
     19400   401.48265      401.64174      1034.5986     -32642890     
     19500   401.48265      401.64174      1035.6477     -32616306     
     19600   401.48265      401.64174      1036.6775     -32589702     
     19700   401.48265      401.64174      1037.7806     -32563250     
     19800   401.48265      401.64174      1038.6093     -32536630     
     19900   401.48265      401.64174      1039.7663     -32509937     
SHOCK: step 20000 t 20 zpos 236.2685974485198 vz 12 az 4.4901779924200145e+33 zlo 236.12605715427023
     20000   401.48265      401.64174      1040.6662     -32483149     
Loop time of 33242.5 on 80 procs for 20000 steps with 11595345 atoms

Performance: 0.052 ns/day, 461.701 hours/ns, 0.602 timesteps/s
99.6% CPU use with 80 MPI tasks x 1 OpenMP threads

MPI task timing breakdown:
Section |  min time  |  avg time  |  max time  |%varavg| %total
---------------------------------------------------------------
Pair    | 14523      | 16121      | 17247      | 680.9 | 48.49
Neigh   | 8273.7     | 10867      | 12787      |1052.9 | 32.69
Comm    | 2085.6     | 3503       | 5506.5     |1054.3 | 10.54
Output  | 994.48     | 1008.3     | 1037       |  43.0 |  3.03
Modify  | 62.749     | 89.399     | 125.45     | 162.0 |  0.27
Other   |            | 1654       |            |       |  4.98

Nlocal:         144942 ave      151726 max      115598 min
Histogram: 5 3 0 0 0 8 0 8 0 56
Nghost:        69511.9 ave       75395 max       46692 min
Histogram: 8 0 0 0 8 0 0 8 8 48
Neighs:    1.45489e+07 ave 1.57685e+07 max 9.94097e+06 min
Histogram: 8 0 0 0 8 0 3 5 0 56

Total # of neighbors = 1.1639145e+09
Ave neighs/atom = 100.37774
Neighbor list builds = 20000
Dangerous builds = 0
Setting up Verlet run ...
  Unit style    : metal
  Current step  : 20000
  Time step     : 0.001
Per MPI rank memory allocation (min/avg/max) = 191.6 | 212.7 | 224.8 Mbytes
   Step           Lx             Ly             Lz           TotEng    
     20000   401.48265      401.64174      1040.6662     -32483149     
     20100   401.48265      401.64174      1043.0827     -32483149     
     20200   401.48265      401.64174      1045.8628     -32483147     
     20300   401.48265      401.64174      1048.7384     -32483146     
     20400   401.48265      401.64174      1051.3214     -32483144     
     20500   401.48265      401.64174      1053.893      -32483143     
     20600   401.48265      401.64174      1056.1865     -32483141     
     20700   401.48265      401.64174      1059.2009     -32483140     
     20800   401.48265      401.64174      1061.5822     -32483139     
     20900   401.48265      401.64174      1063.8486     -32483137     
     21000   401.48265      401.64174      1066.2225     -32483135     
     21100   401.48265      401.64174      1068.3777     -32483134     
     21200   401.48265      401.64174      1070.6371     -32483133     
     21300   401.48265      401.64174      1072.4733     -32483131     
     21400   401.48265      401.64174      1075.1607     -32483130     
     21500   401.48265      401.64174      1077.5722     -32483128     
     21600   401.48265      401.64174      1079.9682     -32483127     
     21700   401.48265      401.64174      1082.8244     -32483126     
     21800   401.48265      401.64174      1085.4692     -32483124     
     21900   401.48265      401.64174      1088.0431     -32483123     
     22000   401.48265      401.64174      1090.15       -32483121     
     22100   401.48265      401.64174      1092.6785     -32483120     
     22200   401.48265      401.64174      1095.5104     -32483119     
     22300   401.48265      401.64174      1098.763      -32483117     
     22400   401.48265      401.64174      1101.164      -32483116     
     22500   401.48265      401.64174      1103.8299     -32483114     
     22600   401.48265      401.64174      1106.1127     -32483113     
     22700   401.48265      401.64174      1109.0005     -32483112     
     22800   401.48265      401.64174      1111.3298     -32483110     
     22900   401.48265      401.64174      1113.3553     -32483109     
     23000   401.48265      401.64174      1116.45       -32483107     
     23100   401.48265      401.64174      1118.4938     -32483106     
     23200   401.48265      401.64174      1120.316      -32483104     
     23300   401.48265      401.64174      1122.903      -32483103     
     23400   401.48265      401.64174      1126.0965     -32483101     
     23500   401.48265      401.64174      1128.2037     -32483100     
     23600   401.48265      401.64174      1130.6368     -32483098     
     23700   401.48265      401.64174      1132.8532     -32483097     
     23800   401.48265      401.64174      1135.1906     -32483096     
     23900   401.48265      401.64174      1137.4667     -32483094     
     24000   401.48265      401.64174      1140.049      -32483093     
     24100   401.48265      401.64174      1142.0433     -32483091     
     24200   401.48265      401.64174      1144.8984     -32483090     
     24300   401.48265      401.64174      1147.2963     -32483088     
     24400   401.48265      401.64174      1149.5738     -32483087     
     24500   401.48265      401.64174      1152.1877     -32483085     
     24600   401.48265      401.64174      1154.1946     -32483084     
     24700   401.48265      401.64174      1156.4125     -32483082     
     24800   401.48265      401.64174      1159.1981     -32483081     
     24900   401.48265      401.64174      1161.315      -32483080     
     25000   401.48265      401.64174      1164.0339     -32483078     
     25100   401.48265      401.64174      1166.6435     -32483077     
     25200   401.48265      401.64174      1168.6997     -32483076     
     25300   401.48265      401.64174      1171.2226     -32483074     
     25400   401.48265      401.64174      1173.9342     -32483073     
     25500   401.48265      401.64174      1175.9863     -32483072     
     25600   401.48265      401.64174      1178.6771     -32483071     
     25700   401.48265      401.64174      1180.985      -32483069     
     25800   401.48265      401.64174      1183.0696     -32483068     
     25900   401.48265      401.64174      1185.9181     -32483067     
     26000   401.48265      401.64174      1188.4816     -32483066     
     26100   401.48265      401.64174      1190.7488     -32483065     
     26200   401.48265      401.64174      1192.9053     -32483064     
     26300   401.48265      401.64174      1195.5037     -32483063     
     26400   401.48265      401.64174      1197.5008     -32483062     
     26500   401.48265      401.64174      1200.2003     -32483061     
     26600   401.48265      401.64174      1202.4697     -32483060     
     26700   401.48265      401.64174      1205.0137     -32483059     
     26800   401.48265      401.64174      1207.4284     -32483058     
     26900   401.48265      401.64174      1209.948      -32483057     
     27000   401.48265      401.64174      1212.3474     -32483056     
     27100   401.48265      401.64174      1215.1466     -32483055     
     27200   401.48265      401.64174      1217.3187     -32483054     
     27300   401.48265      401.64174      1219.8223     -32483053     
     27400   401.48265      401.64174      1222.212      -32483052     
     27500   401.48265      401.64174      1224.9461     -32483052     
     27600   401.48265      401.64174      1227.3249     -32483051     
     27700   401.48265      401.64174      1229.712      -32483050     
     27800   401.48265      401.64174      1231.7356     -32483049     
     27900   401.48265      401.64174      1233.9345     -32483048     
     28000   401.48265      401.64174      1236.8669     -32483048     
     28100   401.48265      401.64174      1239.3956     -32483047     
     28200   401.48265      401.64174      1241.7335     -32483046     
     28300   401.48265      401.64174      1243.7132     -32483045     
     28400   401.48265      401.64174      1246.3976     -32483045     
     28500   401.48265      401.64174      1248.963      -32483044     
     28600   401.48265      401.64174      1251.1307     -32483043     
     28700   401.48265      401.64174      1253.3562     -32483042     
     28800   401.48265      401.64174      1255.7845     -32483042     
     28900   401.48265      401.64174      1257.8897     -32483041     
     29000   401.48265      401.64174      1260.2335     -32483040     
     29100   401.48265      401.64174      1262.8097     -32483040     
     29200   401.48265      401.64174      1264.9443     -32483039     
     29300   401.48265      401.64174      1266.8359     -32483038     
     29400   401.48265      401.64174      1269.0495     -32483038     
     29500   401.48265      401.64174      1271.271      -32483037     
     29600   401.48265      401.64174      1273.7202     -32483036     
     29700   401.48265      401.64174      1275.9708     -32483036     
     29800   401.48265      401.64174      1278.0763     -32483035     
     29900   401.48265      401.64174      1280.4666     -32483034     
     30000   401.48265      401.64174      1282.8117     -32483034     
Loop time of 9085.33 on 80 procs for 10000 steps with 11595345 atoms

Performance: 0.095 ns/day, 252.370 hours/ns, 1.101 timesteps/s
99.4% CPU use with 80 MPI tasks x 1 OpenMP threads

MPI task timing breakdown:
Section |  min time  |  avg time  |  max time  |%varavg| %total
---------------------------------------------------------------
Pair    | 5310.9     | 6691.5     | 7519.4     | 504.9 | 73.65
Neigh   | 153.96     | 211.89     | 248.22     | 131.0 |  2.33
Comm    | 698.4      | 1456.2     | 2522.9     | 891.0 | 16.03
Output  | 475.77     | 478.18     | 484.29     |  11.5 |  5.26
Modify  | 21.439     | 36.884     | 59.834     | 149.4 |  0.41
Other   |            | 210.6      |            |       |  2.32

Nlocal:         144942 ave      153949 max      133482 min
Histogram: 7 8 2 11 11 2 7 7 9 16
Nghost:        63876.4 ave       70452 max       52576 min
Histogram: 8 7 1 0 2 14 9 7 16 16
Neighs:    1.19256e+07 ave 1.35277e+07 max 1.00083e+07 min
Histogram: 8 7 4 8 6 12 3 13 4 15

Total # of neighbors = 9.5404738e+08
Ave neighs/atom = 82.278481
Neighbor list builds = 412
Dangerous builds = 0
System init for write_restart ...
Setting up Verlet run ...
  Unit style    : metal
  Current step  : 30000
  Time step     : 0.001
Per MPI rank memory allocation (min/avg/max) = 193.6 | 214.1 | 224.8 Mbytes
   Step           Lx             Ly             Lz           TotEng    
     30000   401.48265      401.64174      1283.5248     -32483034     
     30100   401.48265      401.64174      1285.7205     -32483033     
     30200   401.48265      401.64174      1287.3296     -32483033     
     30300   401.48265      401.64174      1289.4919     -32483032     
     30400   401.48265      401.64174      1292.0178     -32483032     
     30500   401.48265      401.64174      1293.9785     -32483031     
     30600   401.48265      401.64174      1296.8165     -32483031     
     30700   401.48265      401.64174      1298.8848     -32483030     
     30800   401.48265      401.64174      1301.7956     -32483030     
     30900   401.48265      401.64174      1304.6436     -32483029     
     31000   401.48265      401.64174      1307.1339     -32483029     
     31100   401.48265      401.64174      1309.9331     -32483028     
     31200   401.48265      401.64174      1312.3554     -32483028     
     31300   401.48265      401.64174      1314.2409     -32483028     
     31400   401.48265      401.64174      1316.1883     -32483028     
     31500   401.48265      401.64174      1318.8504     -32483028     
     31600   401.48265      401.64174      1321.1668     -32483027     
     31700   401.48265      401.64174      1322.9798     -32483027     
     31800   401.48265      401.64174      1325.5314     -32483028     
     31900   401.48265      401.64174      1327.5143     -32483028     
     32000   401.48265      401.64174      1329.224      -32483028     
     32100   401.48265      401.64174      1332.0594     -32483028     
     32200   401.48265      401.64174      1333.9979     -32483029     
     32300   401.48265      401.64174      1336.2687     -32483029     
     32400   401.48265      401.64174      1338.5091     -32483030     
     32500   401.48265      401.64174      1341.2909     -32483030     
     32600   401.48265      401.64174      1343.4222     -32483031     
     32700   401.48265      401.64174      1345.5592     -32483032     
     32800   401.48265      401.64174      1347.8719     -32483032     
     32900   401.48265      401.64174      1350.0382     -32483033     
     33000   401.48265      401.64174      1351.8654     -32483034     
     33100   401.48265      401.64174      1354.2883     -32483034     
     33200   401.48265      401.64174      1356.4629     -32483035     
     33300   401.48265      401.64174      1358.5541     -32483036     
     33400   401.48265      401.64174      1360.7854     -32483036     
     33500   401.48265      401.64174      1362.8829     -32483037     
     33600   401.48265      401.64174      1365.2121     -32483038     
     33700   401.48265      401.64174      1366.895      -32483038     
     33800   401.48265      401.64174      1369.3046     -32483039     
     33900   401.48265      401.64174      1371.4637     -32483039     
     34000   401.48265      401.64174      1373.9809     -32483040     
     34100   401.48265      401.64174      1375.8416     -32483040     
     34200   401.48265      401.64174      1378.0992     -32483041     
     34300   401.48265      401.64174      1380.4375     -32483041     
     34400   401.48265      401.64174      1382.3874     -32483041     
     34500   401.48265      401.64174      1384.7021     -32483042     
     34600   401.48265      401.64174      1386.4363     -32483042     
     34700   401.48265      401.64174      1387.921      -32483043     
     34800   401.48265      401.64174      1390.4245     -32483043     
     34900   401.48265      401.64174      1392.7245     -32483043     
     35000   401.48265      401.64174      1394.2104     -32483044     
     35100   401.48265      401.64174      1396.2286     -32483044     
     35200   401.48265      401.64174      1398.0716     -32483044     
     35300   401.48265      401.64174      1399.6247     -32483045     
     35400   401.48265      401.64174      1401.5818     -32483045     
     35500   401.48265      401.64174      1403.2212     -32483046     
     35600   401.48265      401.64174      1405.3339     -32483046     
     35700   401.48265      401.64174      1406.7942     -32483047     
     35800   401.48265      401.64174      1408.6015     -32483047     
     35900   401.48265      401.64174      1410.0982     -32483047     
     36000   401.48265      401.64174      1412.4117     -32483048     
     36100   401.48265      401.64174      1413.8748     -32483048     
     36200   401.48265      401.64174      1415.6102     -32483049     
     36300   401.48265      401.64174      1417.3487     -32483049     
     36400   401.48265      401.64174      1418.9027     -32483050     
     36500   401.48265      401.64174      1420.6245     -32483050     
     36600   401.48265      401.64174      1422.1793     -32483051     
     36700   401.48265      401.64174      1424.1444     -32483051     
     36800   401.48265      401.64174      1425.6285     -32483052     
     36900   401.48265      401.64174      1426.8877     -32483052     
     37000   401.48265      401.64174      1428.4326     -32483053     
     37100   401.48265      401.64174      1430.1116     -32483053     
     37200   401.48265      401.64174      1430.9848     -32483054     
     37300   401.48265      401.64174      1432.7713     -32483054     
     37400   401.48265      401.64174      1433.706      -32483055     
     37500   401.48265      401.64174      1435.3067     -32483055     
     37600   401.48265      401.64174      1436.7708     -32483055     
     37700   401.48265      401.64174      1437.7071     -32483056     
     37800   401.48265      401.64174      1439.07       -32483056     
     37900   401.48265      401.64174      1440.1345     -32483057     
     38000   401.48265      401.64174      1441.6915     -32483057     
     38100   401.48265      401.64174      1442.7702     -32483058     
     38200   401.48265      401.64174      1443.9962     -32483058     
     38300   401.48265      401.64174      1445.5501     -32483059     
     38400   401.48265      401.64174      1446.5069     -32483059     
     38500   401.48265      401.64174      1447.817      -32483060     
     38600   401.48265      401.64174      1449.4048     -32483061     
     38700   401.48265      401.64174      1450.7819     -32483061     
     38800   401.48265      401.64174      1452.0074     -32483062     
     38900   401.48265      401.64174      1452.1607     -32483062     
     39000   401.48265      401.64174      1453.6888     -32483063     
     39100   401.48265      401.64174      1454.6986     -32483063     
     39200   401.48265      401.64174      1455.8498     -32483064     
     39300   401.48265      401.64174      1457.606      -32483064     
     39400   401.48265      401.64174      1458.3388     -32483065     
     39500   401.48265      401.64174      1459.5876     -32483065     
     39600   401.48265      401.64174      1460.645      -32483066     
     39700   401.48265      401.64174      1461.9235     -32483066     
     39800   401.48265      401.64174      1463.6396     -32483066     
     39900   401.48265      401.64174      1464.429      -32483067     
     40000   401.48265      401.64174      1465.9817     -32483067     
Loop time of 8509.88 on 80 procs for 10000 steps with 11595345 atoms

Performance: 0.102 ns/day, 236.386 hours/ns, 1.175 timesteps/s
99.5% CPU use with 80 MPI tasks x 1 OpenMP threads

MPI task timing breakdown:
Section |  min time  |  avg time  |  max time  |%varavg| %total
---------------------------------------------------------------
Pair    | 5129.7     | 6114.5     | 6997.8     | 613.4 | 71.85
Neigh   | 152.83     | 223.76     | 264.95     | 196.8 |  2.63
Comm    | 564.49     | 1399.4     | 2378.1     |1240.2 | 16.44
Output  | 492.33     | 493.94     | 496.49     |   6.1 |  5.80
Modify  | 19.665     | 34.455     | 57.907     | 152.6 |  0.40
Other   |            | 243.8      |            |       |  2.86

Nlocal:         144942 ave      179347 max       74906 min
Histogram: 4 2 5 6 9 6 3 4 20 21
Nghost:          60762 ave       77860 max       33901 min
Histogram: 4 4 5 5 4 16 15 2 12 13
Neighs:    1.19586e+07 ave 1.58928e+07 max 5.65917e+06 min
Histogram: 4 3 8 8 8 4 4 9 17 15

Total # of neighbors = 9.5668432e+08
Ave neighs/atom = 82.505895
Neighbor list builds = 480
Dangerous builds = 0
System init for write_restart ...
Setting up Verlet run ...
  Unit style    : metal
  Current step  : 40000
  Time step     : 0.001
Per MPI rank memory allocation (min/avg/max) = 206.2 | 218.7 | 229.5 Mbytes
   Step           Lx             Ly             Lz           TotEng    
     40000   401.48265      401.64174      1466.0198     -32483067     
     40100   401.48265      401.64174      1467.3963     -32483068     
     40200   401.48265      401.64174      1468.5098     -32483068     
     40300   401.48265      401.64174      1469.9576     -32483068     
     40400   401.48265      401.64174      1471.2081     -32483069     
     40500   401.48265      401.64174      1472.8594     -32483069     
     40600   401.48265      401.64174      1474.2199     -32483069     
     40700   401.48265      401.64174      1475.8885     -32483069     
     40800   401.48265      401.64174      1477.2924     -32483070     
     40900   401.48265      401.64174      1478.9259     -32483070     
     41000   401.48265      401.64174      1480.3935     -32483070     
     41100   401.48265      401.64174      1481.8313     -32483071     
     41200   401.48265      401.64174      1483.2023     -32483071     
     41300   401.48265      401.64174      1484.4734     -32483071     
     41400   401.48265      401.64174      1485.5133     -32483071     
     41500   401.48265      401.64174      1487.0902     -32483072     
     41600   401.48265      401.64174      1488.5843     -32483072     
     41700   401.48265      401.64174      1490.0928     -32483072     
     41800   401.48265      401.64174      1491.3995     -32483072     
     41900   401.48265      401.64174      1492.5275     -32483072     
     42000   401.48265      401.64174      1494.7914     -32483073     
     42100   401.48265      401.64174      1495.4442     -32483073     
     42200   401.48265      401.64174      1496.7074     -32483073     
     42300   401.48265      401.64174      1498.6409     -32483073     
     42400   401.48265      401.64174      1499.9061     -32483073     
     42500   401.48265      401.64174      1501.2623     -32483073     
     42600   401.48265      401.64174      1502.9604     -32483074     
     42700   401.48265      401.64174      1504.3951     -32483074     
     42800   401.48265      401.64174      1505.4074     -32483074     
     42900   401.48265      401.64174      1506.8104     -32483074     
     43000   401.48265      401.64174      1508.4509     -32483074     
     43100   401.48265      401.64174      1509.7618     -32483074     
     43200   401.48265      401.64174      1511.0566     -32483074     
     43300   401.48265      401.64174      1512.7134     -32483074     
     43400   401.48265      401.64174      1514.1891     -32483074     
     43500   401.48265      401.64174      1515.9123     -32483074     
     43600   401.48265      401.64174      1518.2221     -32483074     
     43700   401.48265      401.64174      1519.5774     -32483074     
     43800   401.48265      401.64174      1521.8814     -32483074     
     43900   401.48265      401.64174      1523.6608     -32483074     
     44000   401.48265      401.64174      1525.0611     -32483074     
     44100   401.48265      401.64174      1526.9869     -32483074     
     44200   401.48265      401.64174      1528.5755     -32483074     
     44300   401.48265      401.64174      1530.469      -32483073     
     44400   401.48265      401.64174      1532.6651     -32483073     
     44500   401.48265      401.64174      1534.259      -32483073     
     44600   401.48265      401.64174      1536.7635     -32483073     
     44700   401.48265      401.64174      1538.1871     -32483073     
     44800   401.48265      401.64174      1540.4244     -32483073     
     44900   401.48265      401.64174      1542.7395     -32483073     
     45000   401.48265      401.64174      1544.4814     -32483073     
     45100   401.48265      401.64174      1546.1531     -32483073     
     45200   401.48265      401.64174      1548.2971     -32483072     
     45300   401.48265      401.64174      1550.6931     -32483072     
     45400   401.48265      401.64174      1552.8101     -32483072     
     45500   401.48265      401.64174      1554.5117     -32483072     
     45600   401.48265      401.64174      1556.445      -32483072     
     45700   401.48265      401.64174      1558.789      -32483072     
     45800   401.48265      401.64174      1561.045      -32483072     
     45900   401.48265      401.64174      1562.7252     -32483072     
     46000   401.48265      401.64174      1564.0549     -32483072     
     46100   401.48265      401.64174      1566.3296     -32483072     
     46200   401.48265      401.64174      1568.0382     -32483072     
     46300   401.48265      401.64174      1569.9101     -32483072     
     46400   401.48265      401.64174      1571.6919     -32483072     
     46500   401.48265      401.64174      1574.0238     -32483072     
     46600   401.48265      401.64174      1575.6563     -32483072     
     46700   401.48265      401.64174      1577.6748     -32483072     
     46800   401.48265      401.64174      1579.2124     -32483072     
     46900   401.48265      401.64174      1580.9067     -32483072     
     47000   401.48265      401.64174      1582.4857     -32483072     
     47100   401.48265      401.64174      1584.5635     -32483072     
     47200   401.48265      401.64174      1586.3221     -32483072     
     47300   401.48265      401.64174      1588.2226     -32483072     
     47400   401.48265      401.64174      1589.4123     -32483072     
     47500   401.48265      401.64174      1591.4087     -32483072     
     47600   401.48265      401.64174      1593.2953     -32483072     
     47700   401.48265      401.64174      1595.3163     -32483072     
     47800   401.48265      401.64174      1596.8372     -32483072     
     47900   401.48265      401.64174      1598.7105     -32483072     
     48000   401.48265      401.64174      1600.4721     -32483072     
     48100   401.48265      401.64174      1602.7496     -32483072     
     48200   401.48265      401.64174      1604.5929     -32483072     
     48300   401.48265      401.64174      1606.2696     -32483072     
     48400   401.48265      401.64174      1608.3627     -32483072     
     48500   401.48265      401.64174      1610.2963     -32483072     
     48600   401.48265      401.64174      1612.2068     -32483072     
     48700   401.48265      401.64174      1613.5661     -32483072     
     48800   401.48265      401.64174      1615.3418     -32483072     
     48900   401.48265      401.64174      1617.8989     -32483072     
     49000   401.48265      401.64174      1618.9433     -32483071     
     49100   401.48265      401.64174      1620.3907     -32483072     
     49200   401.48265      401.64174      1622.4693     -32483072     
     49300   401.48265      401.64174      1623.4632     -32483072     
     49400   401.48265      401.64174      1625.5372     -32483072     
     49500   401.48265      401.64174      1626.8178     -32483072     
     49600   401.48265      401.64174      1628.4492     -32483072     
     49700   401.48265      401.64174      1630.1884     -32483072     
     49800   401.48265      401.64174      1632.0702     -32483072     
     49900   401.48265      401.64174      1633.4918     -32483072     
     50000   401.48265      401.64174      1634.9202     -32483072     
Loop time of 9588.24 on 80 procs for 10000 steps with 11595345 atoms

Performance: 0.090 ns/day, 266.340 hours/ns, 1.043 timesteps/s
99.5% CPU use with 80 MPI tasks x 1 OpenMP threads

MPI task timing breakdown:
Section |  min time  |  avg time  |  max time  |%varavg| %total
---------------------------------------------------------------
Pair    | 4632.9     | 6422.2     | 8054.4     |1093.4 | 66.98
Neigh   | 80.57      | 222.41     | 325.82     | 455.3 |  2.32
Comm    | 632.05     | 2065.3     | 3977.7     |1816.9 | 21.54
Output  | 480.47     | 486.7      | 493.68     |  24.1 |  5.08
Modify  | 11.489     | 33.214     | 63.721     | 229.8 |  0.35
Other   |            | 358.4      |            |       |  3.74

Nlocal:         144942 ave      195502 max       39069 min
Histogram: 3 5 5 6 8 8 2 2 5 36
Nghost:        58526.4 ave       81804 max       22369 min
Histogram: 5 5 8 5 3 10 8 14 2 20
Neighs:    1.19824e+07 ave 1.70194e+07 max 2.89197e+06 min
Histogram: 4 7 4 5 12 4 1 2 12 29

Total # of neighbors = 9.5859035e+08
Ave neighs/atom = 82.670274
Neighbor list builds = 484
Dangerous builds = 0
System init for write_restart ...
Setting up Verlet run ...
  Unit style    : metal
  Current step  : 50000
  Time step     : 0.001
Per MPI rank memory allocation (min/avg/max) = 213.9 | 227.3 | 244 Mbytes
   Step           Lx             Ly             Lz           TotEng    
     50000   401.48265      401.64174      1635.2186     -32483072     
     50100   401.48265      401.64174      1636.6405     -32483072     
     50200   401.48265      401.64174      1638.5548     -32483072     
     50300   401.48265      401.64174      1639.9759     -32483072     
     50400   401.48265      401.64174      1641.3508     -32483072     
     50500   401.48265      401.64174      1642.862      -32483072     
     50600   401.48265      401.64174      1644.3407     -32483072     
     50700   401.48265      401.64174      1645.7708     -32483072     
     50800   401.48265      401.64174      1647.0531     -32483072     
     50900   401.48265      401.64174      1649.2933     -32483072     
     51000   401.48265      401.64174      1650.9499     -32483072     
     51100   401.48265      401.64174      1651.4663     -32483072     
     51200   401.48265      401.64174      1653.16       -32483072     
     51300   401.48265      401.64174      1654.5274     -32483073     
     51400   401.48265      401.64174      1656.1613     -32483073     
     51500   401.48265      401.64174      1657.9408     -32483073     
     51600   401.48265      401.64174      1659.49       -32483073     
     51700   401.48265      401.64174      1660.554      -32483073     
     51800   401.48265      401.64174      1662.1237     -32483073     
     51900   401.48265      401.64174      1664.2032     -32483073     
     52000   401.48265      401.64174      1665.4236     -32483074     
     52100   401.48265      401.64174      1666.7877     -32483074     
     52200   401.48265      401.64174      1668.7814     -32483074     
     52300   401.48265      401.64174      1670.1048     -32483074     
     52400   401.48265      401.64174      1671.78       -32483074     
     52500   401.48265      401.64174      1673.0221     -32483074     
     52600   401.48265      401.64174      1674.9407     -32483074     
     52700   401.48265      401.64174      1676.9985     -32483074     
     52800   401.48265      401.64174      1678.5312     -32483074     
     52900   401.48265      401.64174      1679.0051     -32483075     
     53000   401.48265      401.64174      1680.4323     -32483075     
     53100   401.48265      401.64174      1682.5299     -32483075     
     53200   401.48265      401.64174      1684.1551     -32483075     
     53300   401.48265      401.64174      1685.4147     -32483075     
     53400   401.48265      401.64174      1687.1753     -32483075     
     53500   401.48265      401.64174      1688.4553     -32483075     
     53600   401.48265      401.64174      1690.3139     -32483075     
     53700   401.48265      401.64174      1692.0218     -32483075     
     53800   401.48265      401.64174      1693.8164     -32483075     
     53900   401.48265      401.64174      1695.209      -32483075     
     54000   401.48265      401.64174      1696.9265     -32483075     
     54100   401.48265      401.64174      1698.3977     -32483076     
     54200   401.48265      401.64174      1700.3133     -32483076     
     54300   401.48265      401.64174      1702.1519     -32483076     
     54400   401.48265      401.64174      1704.1736     -32483076     
     54500   401.48265      401.64174      1705.561      -32483076     
     54600   401.48265      401.64174      1707.4062     -32483076     
     54700   401.48265      401.64174      1708.3748     -32483076     
     54800   401.48265      401.64174      1710.363      -32483076     
     54900   401.48265      401.64174      1712.1023     -32483076     
     55000   401.48265      401.64174      1713.5549     -32483076     
     55100   401.48265      401.64174      1715.3083     -32483076     
     55200   401.48265      401.64174      1716.8804     -32483076     
     55300   401.48265      401.64174      1718.9512     -32483076     
     55400   401.48265      401.64174      1720.2967     -32483076     
     55500   401.48265      401.64174      1722.1912     -32483076     
     55600   401.48265      401.64174      1723.7704     -32483076     
     55700   401.48265      401.64174      1725.9505     -32483076     
     55800   401.48265      401.64174      1727.0426     -32483076     
     55900   401.48265      401.64174      1728.8634     -32483076     
     56000   401.48265      401.64174      1730.1376     -32483075     
     56100   401.48265      401.64174      1731.6536     -32483076     
     56200   401.48265      401.64174      1733.5926     -32483076     
     56300   401.48265      401.64174      1735.6046     -32483076     
     56400   401.48265      401.64174      1737.0201     -32483075     
     56500   401.48265      401.64174      1738.6705     -32483075     
     56600   401.48265      401.64174      1740.4734     -32483075     
     56700   401.48265      401.64174      1742.1436     -32483075     
     56800   401.48265      401.64174      1744.1723     -32483075     
     56900   401.48265      401.64174      1745.8293     -32483075     
     57000   401.48265      401.64174      1748.2074     -32483075     
     57100   401.48265      401.64174      1749.425      -32483075     
     57200   401.48265      401.64174      1751.3713     -32483075     
     57300   401.48265      401.64174      1753.2528     -32483075     
     57400   401.48265      401.64174      1754.3163     -32483074     
     57500   401.48265      401.64174      1756.1761     -32483075     
     57600   401.48265      401.64174      1757.9787     -32483074     
     57700   401.48265      401.64174      1759.5173     -32483074     
     57800   401.48265      401.64174      1761.4026     -32483074     
     57900   401.48265      401.64174      1763.1698     -32483074     
     58000   401.48265      401.64174      1764.6475     -32483074     
     58100   401.48265      401.64174      1766.4044     -32483074     
     58200   401.48265      401.64174      1768.3381     -32483074     
     58300   401.48265      401.64174      1770.0152     -32483074     
     58400   401.48265      401.64174      1771.5452     -32483074     
     58500   401.48265      401.64174      1773.3722     -32483074     
     58600   401.48265      401.64174      1775.3947     -32483074     
     58700   401.48265      401.64174      1777.5437     -32483074     
     58800   401.48265      401.64174      1778.5926     -32483074     
     58900   401.48265      401.64174      1780.2531     -32483074     
     59000   401.48265      401.64174      1781.7664     -32483074     
     59100   401.48265      401.64174      1783.1198     -32483074     
     59200   401.48265      401.64174      1785.285      -32483074     
     59300   401.48265      401.64174      1786.4789     -32483074     
     59400   401.48265      401.64174      1788.5111     -32483074     
     59500   401.48265      401.64174      1789.8647     -32483074     
     59600   401.48265      401.64174      1791.4906     -32483074     
     59700   401.48265      401.64174      1792.7009     -32483074     
     59800   401.48265      401.64174      1794.2926     -32483074     
     59900   401.48265      401.64174      1795.855      -32483075     
     60000   401.48265      401.64174      1797.8959     -32483075     
Loop time of 10463.9 on 80 procs for 10000 steps with 11595345 atoms

Performance: 0.083 ns/day, 290.664 hours/ns, 0.956 timesteps/s
99.6% CPU use with 80 MPI tasks x 1 OpenMP threads

MPI task timing breakdown:
Section |  min time  |  avg time  |  max time  |%varavg| %total
---------------------------------------------------------------
Pair    | 4474       | 7060.5     | 8765.4     |1616.1 | 67.48
Neigh   | 39.648     | 218.78     | 323.56     | 634.6 |  2.09
Comm    | 692.77     | 2325.8     | 4903.5     |2720.5 | 22.23
Output  | 511.42     | 514.83     | 524.43     |  16.7 |  4.92
Modify  | 7.7499     | 33.849     | 67.906     | 282.4 |  0.32
Other   |            | 310.1      |            |       |  2.96

Nlocal:         144942 ave      215550 max       21149 min
Histogram: 7 8 3 2 12 4 4 3 2 35
Nghost:        56831.3 ave       88037 max       13826 min
Histogram: 5 10 4 8 6 5 4 11 16 11
Neighs:    1.19782e+07 ave 1.88231e+07 max 1.58675e+06 min
Histogram: 8 8 3 7 8 2 5 2 18 19

Total # of neighbors = 9.5825742e+08
Ave neighs/atom = 82.641562
Neighbor list builds = 452
Dangerous builds = 0
System init for write_restart ...
Setting up Verlet run ...
  Unit style    : metal
  Current step  : 60000
  Time step     : 0.001
Per MPI rank memory allocation (min/avg/max) = 217.4 | 235.8 | 257.4 Mbytes
   Step           Lx             Ly             Lz           TotEng    
     60000   401.48265      401.64174      1798.2251     -32483075     
     60100   401.48265      401.64174      1799.5502     -32483075     
     60200   401.48265      401.64174      1801.2246     -32483075     
     60300   401.48265      401.64174      1802.7709     -32483075     
     60400   401.48265      401.64174      1803.7484     -32483075     
     60500   401.48265      401.64174      1805.2018     -32483075     
     60600   401.48265      401.64174      1807.2515     -32483075     
     60700   401.48265      401.64174      1808.5024     -32483075     
     60800   401.48265      401.64174      1810.0247     -32483075     
     60900   401.48265      401.64174      1811.1282     -32483075     
     61000   401.48265      401.64174      1812.8657     -32483076     
     61100   401.48265      401.64174      1814.7168     -32483076     
     61200   401.48265      401.64174      1816.3883     -32483076     
     61300   401.48265      401.64174      1817.8417     -32483076     
     61400   401.48265      401.64174      1819.4247     -32483076     
     61500   401.48265      401.64174      1821.0729     -32483076     
     61600   401.48265      401.64174      1822.9647     -32483076     
     61700   401.48265      401.64174      1824.4646     -32483076     
     61800   401.48265      401.64174      1826.2205     -32483076     
     61900   401.48265      401.64174      1828.0753     -32483076     
     62000   401.48265      401.64174      1829.8255     -32483077     
     62100   401.48265      401.64174      1830.6934     -32483077     
     62200   401.48265      401.64174      1831.9232     -32483077     
     62300   401.48265      401.64174      1834.0235     -32483077     
     62400   401.48265      401.64174      1835.2978     -32483077     
     62500   401.48265      401.64174      1836.3446     -32483077     
     62600   401.48265      401.64174      1837.6785     -32483077     
     62700   401.48265      401.64174      1839.5769     -32483078     
     62800   401.48265      401.64174      1841.1344     -32483078     
     62900   401.48265      401.64174      1842.224      -32483078     
     63000   401.48265      401.64174      1843.3558     -32483078     
     63100   401.48265      401.64174      1845.4144     -32483078     
     63200   401.48265      401.64174      1847.2861     -32483078     
     63300   401.48265      401.64174      1848.3398     -32483078     
     63400   401.48265      401.64174      1849.9192     -32483079     
     63500   401.48265      401.64174      1851.0468     -32483079     
     63600   401.48265      401.64174      1852.0666     -32483079     
     63700   401.48265      401.64174      1853.6981     -32483079     
     63800   401.48265      401.64174      1855.6126     -32483079     
     63900   401.48265      401.64174      1857.2872     -32483079     
     64000   401.48265      401.64174      1858.6227     -32483079     
     64100   401.48265      401.64174      1859.861      -32483080     
     64200   401.48265      401.64174      1861.3119     -32483080     
     64300   401.48265      401.64174      1863.007      -32483080     
     64400   401.48265      401.64174      1864.645      -32483080     
     64500   401.48265      401.64174      1865.7923     -32483080     
     64600   401.48265      401.64174      1867.5005     -32483080     
     64700   401.48265      401.64174      1869.416      -32483080     
     64800   401.48265      401.64174      1871.0864     -32483080     
     64900   401.48265      401.64174      1872.5955     -32483080     
     65000   401.48265      401.64174      1873.6757     -32483080     
     65100   401.48265      401.64174      1874.7235     -32483081     
     65200   401.48265      401.64174      1876.9641     -32483081     
     65300   401.48265      401.64174      1877.9133     -32483081     
     65400   401.48265      401.64174      1879.9376     -32483081     
     65500   401.48265      401.64174      1881.4478     -32483081     
     65600   401.48265      401.64174      1883.1214     -32483081     
     65700   401.48265      401.64174      1884.9401     -32483081     
     65800   401.48265      401.64174      1886.4261     -32483081     
     65900   401.48265      401.64174      1888.3595     -32483081     
     66000   401.48265      401.64174      1889.9709     -32483081     
     66100   401.48265      401.64174      1891.753      -32483081     
     66200   401.48265      401.64174      1893.2961     -32483081     
     66300   401.48265      401.64174      1894.8575     -32483081     
     66400   401.48265      401.64174      1896.1622     -32483081     
     66500   401.48265      401.64174      1898.1576     -32483081     
     66600   401.48265      401.64174      1900.49       -32483081     
     66700   401.48265      401.64174      1901.5169     -32483081     
     66800   401.48265      401.64174      1903.3822     -32483081     
     66900   401.48265      401.64174      1904.3692     -32483081     
     67000   401.48265      401.64174      1906.2119     -32483081     
     67100   401.48265      401.64174      1907.8515     -32483081     
     67200   401.48265      401.64174      1909.0378     -32483081     
     67300   401.48265      401.64174      1910.7726     -32483081     
     67400   401.48265      401.64174      1912.7681     -32483081     
     67500   401.48265      401.64174      1914.371      -32483081     
     67600   401.48265      401.64174      1915.9928     -32483081     
     67700   401.48265      401.64174      1918.1053     -32483081     
     67800   401.48265      401.64174      1919.1715     -32483081     
     67900   401.48265      401.64174      1921.2451     -32483081     
     68000   401.48265      401.64174      1922.9652     -32483081     
     68100   401.48265      401.64174      1923.916      -32483081     
     68200   401.48265      401.64174      1925.8069     -32483081     
     68300   401.48265      401.64174      1927.4757     -32483080     
     68400   401.48265      401.64174      1929.271      -32483080     
     68500   401.48265      401.64174      1930.8955     -32483080     
     68600   401.48265      401.64174      1932.5773     -32483080     
     68700   401.48265      401.64174      1934.607      -32483080     
     68800   401.48265      401.64174      1936.2367     -32483080     
     68900   401.48265      401.64174      1937.9272     -32483080     
     69000   401.48265      401.64174      1940.0329     -32483080     
     69100   401.48265      401.64174      1941.5739     -32483080     
     69200   401.48265      401.64174      1943.6253     -32483079     
     69300   401.48265      401.64174      1945.0487     -32483079     
     69400   401.48265      401.64174      1946.5254     -32483079     
     69500   401.48265      401.64174      1948.3296     -32483079     
     69600   401.48265      401.64174      1950.2406     -32483079     
     69700   401.48265      401.64174      1952.421      -32483079     
     69800   401.48265      401.64174      1953.5018     -32483079     
     69900   401.48265      401.64174      1955.7496     -32483079     
     70000   401.48265      401.64174      1957.3502     -32483078     
Loop time of 11634.8 on 80 procs for 10000 steps with 11595345 atoms

Performance: 0.074 ns/day, 323.189 hours/ns, 0.859 timesteps/s
99.6% CPU use with 80 MPI tasks x 1 OpenMP threads

MPI task timing breakdown:
Section |  min time  |  avg time  |  max time  |%varavg| %total
---------------------------------------------------------------
Pair    | 4445.5     | 7623.9     | 9812.5     |1997.7 | 65.53
Neigh   | 10.685     | 218.42     | 354.2      | 784.5 |  1.88
Comm    | 551.53     | 2805       | 5982.5     |3079.2 | 24.11
Output  | 500.68     | 508.28     | 523.23     |  31.2 |  4.37
Modify  | 5.3059     | 33.86      | 71.915     | 306.1 |  0.29
Other   |            | 445.3      |            |       |  3.83

Nlocal:         144942 ave      231012 max         339 min
Histogram: 8 6 5 6 5 5 6 2 8 29
Nghost:        54667.3 ave       91721 max        2692 min
Histogram: 5 8 3 13 6 4 2 5 25 9
Neighs:    1.20091e+07 ave 1.99119e+07 max       24155 min
Histogram: 9 6 7 5 5 5 5 1 10 27

Total # of neighbors = 9.6072988e+08
Ave neighs/atom = 82.854791
Neighbor list builds = 444
Dangerous builds = 0
System init for write_restart ...
Setting up Verlet run ...
  Unit style    : metal
  Current step  : 70000
  Time step     : 0.001
Per MPI rank memory allocation (min/avg/max) = 220.1 | 243.3 | 270.7 Mbytes
   Step           Lx             Ly             Lz           TotEng    
     70000   401.48265      401.64174      1957.5295     -32483078     
     70100   401.48265      401.64174      1958.8207     -32483078     
     70200   401.48265      401.64174      1960.8684     -32483078     
     70300   401.48265      401.64174      1962.5177     -32483078     
     70400   401.48265      401.64174      1964.3352     -32483078     
     70500   401.48265      401.64174      1966.1583     -32483078     
     70600   401.48265      401.64174      1968.1137     -32483078     
     70700   401.48265      401.64174      1969.5386     -32483078     
     70800   401.48265      401.64174      1971.631      -32483078     
     70900   401.48265      401.64174      1972.9748     -32483077     
     71000   401.48265      401.64174      1975.0893     -32483077     
     71100   401.48265      401.64174      1976.6675     -32483077     
     71200   401.48265      401.64174      1978.2044     -32483077     
     71300   401.48265      401.64174      1979.9727     -32483077     
     71400   401.48265      401.64174      1982.0075     -32483077     
     71500   401.48265      401.64174      1983.3903     -32483077     
     71600   401.48265      401.64174      1984.7367     -32483077     
     71700   401.48265      401.64174      1986.8683     -32483077     
     71800   401.48265      401.64174      1988.5108     -32483077     
     71900   401.48265      401.64174      1990.4885     -32483077     
     72000   401.48265      401.64174      1992.0478     -32483077     
     72100   401.48265      401.64174      1993.3361     -32483076     
     72200   401.48265      401.64174      1994.9159     -32483076     
     72300   401.48265      401.64174      1996.9133     -32483076     
     72400   401.48265      401.64174      1998.5834     -32483076     
     72500   401.48265      401.64174      2000.5058     -32483076     
     72600   401.48265      401.64174      2001.9207     -32483076     
     72700   401.48265      401.64174      2003.3967     -32483076     
     72800   401.48265      401.64174      2005.1668     -32483076     
     72900   401.48265      401.64174      2006.4285     -32483076     
     73000   401.48265      401.64174      2008.7142     -32483076     
     73100   401.48265      401.64174      2010.3465     -32483076     
     73200   401.48265      401.64174      2011.9133     -32483076     
     73300   401.48265      401.64174      2013.3786     -32483076     
     73400   401.48265      401.64174      2015.16       -32483076     
     73500   401.48265      401.64174      2016.4357     -32483076     
     73600   401.48265      401.64174      2018.1771     -32483076     
     73700   401.48265      401.64174      2019.7478     -32483076     
     73800   401.48265      401.64174      2020.9519     -32483076     
     73900   401.48265      401.64174      2023.0048     -32483076     
     74000   401.48265      401.64174      2025.0413     -32483076     
     74100   401.48265      401.64174      2026.245      -32483076     
     74200   401.48265      401.64174      2027.6512     -32483076     
     74300   401.48265      401.64174      2028.9215     -32483076     
     74400   401.48265      401.64174      2030.6166     -32483076     
     74500   401.48265      401.64174      2032.0843     -32483077     
     74600   401.48265      401.64174      2033.2273     -32483077     
     74700   401.48265      401.64174      2034.9268     -32483077     
     74800   401.48265      401.64174      2036.5272     -32483077     
     74900   401.48265      401.64174      2038.3004     -32483077     
     75000   401.48265      401.64174      2039.6499     -32483077     
     75100   401.48265      401.64174      2041.1321     -32483077     
     75200   401.48265      401.64174      2043.0544     -32483077     
     75300   401.48265      401.64174      2043.848      -32483077     
     75400   401.48265      401.64174      2045.7292     -32483077     
     75500   401.48265      401.64174      2047.3029     -32483077     
     75600   401.48265      401.64174      2048.7357     -32483077     
     75700   401.48265      401.64174      2050.4591     -32483078     
     75800   401.48265      401.64174      2051.9351     -32483078     
     75900   401.48265      401.64174      2053.4468     -32483078     
     76000   401.48265      401.64174      2054.5861     -32483078     
     76100   401.48265      401.64174      2056.4889     -32483078     
     76200   401.48265      401.64174      2057.6145     -32483078     
     76300   401.48265      401.64174      2059.3967     -32483078     
     76400   401.48265      401.64174      2060.534      -32483078     
     76500   401.48265      401.64174      2061.8638     -32483079     
     76600   401.48265      401.64174      2063.7235     -32483079     
     76700   401.48265      401.64174      2065.1302     -32483079     
     76800   401.48265      401.64174      2066.3548     -32483079     
     76900   401.48265      401.64174      2068.1176     -32483079     
     77000   401.48265      401.64174      2069.3598     -32483079     
     77100   401.48265      401.64174      2070.6563     -32483079     
     77200   401.48265      401.64174      2072.1333     -32483080     
     77300   401.48265      401.64174      2073.4013     -32483080     
     77400   401.48265      401.64174      2075.2262     -32483080     
     77500   401.48265      401.64174      2076.5073     -32483080     
     77600   401.48265      401.64174      2078.4456     -32483080     
     77700   401.48265      401.64174      2079.6291     -32483080     
     77800   401.48265      401.64174      2081.3301     -32483080     
     77900   401.48265      401.64174      2082.5466     -32483080     
     78000   401.48265      401.64174      2084.215      -32483081     
     78100   401.48265      401.64174      2085.53       -32483081     
     78200   401.48265      401.64174      2087.0775     -32483081     
     78300   401.48265      401.64174      2088.3241     -32483081     
     78400   401.48265      401.64174      2089.9723     -32483081     
     78500   401.48265      401.64174      2091.1388     -32483081     
     78600   401.48265      401.64174      2092.7806     -32483081     
     78700   401.48265      401.64174      2094.2564     -32483081     
     78800   401.48265      401.64174      2095.8726     -32483081     
     78900   401.48265      401.64174      2097.1469     -32483082     
     79000   401.48265      401.64174      2099.4369     -32483082     
     79100   401.48265      401.64174      2100.5825     -32483082     
     79200   401.48265      401.64174      2101.9658     -32483082     
     79300   401.48265      401.64174      2103.3398     -32483082     
     79400   401.48265      401.64174      2105.504      -32483082     
     79500   401.48265      401.64174      2106.5439     -32483082     
     79600   401.48265      401.64174      2108.2305     -32483082     
     79700   401.48265      401.64174      2109.6056     -32483082     
     79800   401.48265      401.64174      2111.0523     -32483082     
     79900   401.48265      401.64174      2113.1712     -32483082     
     80000   401.48265      401.64174      2114.4936     -32483082     
Loop time of 12415.5 on 80 procs for 10000 steps with 11595345 atoms

Performance: 0.070 ns/day, 344.875 hours/ns, 0.805 timesteps/s
99.6% CPU use with 80 MPI tasks x 1 OpenMP threads

MPI task timing breakdown:
Section |  min time  |  avg time  |  max time  |%varavg| %total
---------------------------------------------------------------
Pair    | 1832.4     | 7851.8     | 10584      |2383.3 | 63.24
Neigh   | 0.11205    | 216.72     | 379.11     | 886.9 |  1.75
Comm    | 835.04     | 3055.6     | 6621.2     |3067.6 | 24.61
Output  | 510.6      | 525.64     | 731.2      | 141.2 |  4.23
Modify  | 5.3331     | 34.967     | 69.449     | 299.5 |  0.28
Other   |            | 730.8      |            |       |  5.89

Nlocal:         144942 ave      253120 max           0 min
Histogram: 13 5 7 4 6 3 6 8 3 25
Nghost:        53331.6 ave       97970 max           0 min
Histogram: 7 9 7 9 6 2 4 9 19 8
Neighs:    1.20799e+07 ave 2.21407e+07 max           0 min
Histogram: 13 5 8 6 6 4 6 5 2 25

Total # of neighbors = 9.663884e+08
Ave neighs/atom = 83.342789
Neighbor list builds = 444
Dangerous builds = 0
System init for write_restart ...
Setting up Verlet run ...
  Unit style    : metal
  Current step  : 80000
  Time step     : 0.001
Per MPI rank memory allocation (min/avg/max) = 224 | 252.4 | 295.1 Mbytes
   Step           Lx             Ly             Lz           TotEng    
     80000   401.48265      401.64174      2114.7194     -32483082     
     80100   401.48265      401.64174      2116.3286     -32483082     
     80200   401.48265      401.64174      2117.7866     -32483082     
     80300   401.48265      401.64174      2119.0821     -32483082     
     80400   401.48265      401.64174      2120.4915     -32483082     
     80500   401.48265      401.64174      2121.9166     -32483083     
     80600   401.48265      401.64174      2123.9423     -32483082     
     80700   401.48265      401.64174      2124.8825     -32483082     
     80800   401.48265      401.64174      2126.9713     -32483083     
     80900   401.48265      401.64174      2128.6086     -32483082     
     81000   401.48265      401.64174      2130.4015     -32483083     
     81100   401.48265      401.64174      2131.7874     -32483082     
     81200   401.48265      401.64174      2133.7975     -32483083     
     81300   401.48265      401.64174      2135.1165     -32483082     
     81400   401.48265      401.64174      2136.7516     -32483082     
     81500   401.48265      401.64174      2138.6519     -32483082     
     81600   401.48265      401.64174      2139.7602     -32483082     
     81700   401.48265      401.64174      2141.3528     -32483082     
     81800   401.48265      401.64174      2143.2379     -32483082     
     81900   401.48265      401.64174      2144.5665     -32483082     
     82000   401.48265      401.64174      2146.4512     -32483082     
     82100   401.48265      401.64174      2148.3224     -32483082     
     82200   401.48265      401.64174      2149.7897     -32483082     
     82300   401.48265      401.64174      2151.3953     -32483082     
     82400   401.48265      401.64174      2153.2115     -32483082     
     82500   401.48265      401.64174      2154.6083     -32483082     
     82600   401.48265      401.64174      2156.7414     -32483082     
     82700   401.48265      401.64174      2158.0411     -32483082     
     82800   401.48265      401.64174      2159.7059     -32483082     
     82900   401.48265      401.64174      2161.0026     -32483082     
     83000   401.48265      401.64174      2162.9892     -32483082     
     83100   401.48265      401.64174      2164.992      -32483082     
     83200   401.48265      401.64174      2166.7385     -32483081     
     83300   401.48265      401.64174      2168.2833     -32483081     
     83400   401.48265      401.64174      2170.1611     -32483081     
     83500   401.48265      401.64174      2172.0244     -32483081     
     83600   401.48265      401.64174      2173.1316     -32483081     
     83700   401.48265      401.64174      2175.4168     -32483081     
     83800   401.48265      401.64174      2176.7818     -32483081     
     83900   401.48265      401.64174      2178.8717     -32483081     
     84000   401.48265      401.64174      2180.1725     -32483081     
     84100   401.48265      401.64174      2181.5817     -32483081     
     84200   401.48265      401.64174      2183.6052     -32483081     
     84300   401.48265      401.64174      2185.3685     -32483080     
     84400   401.48265      401.64174      2186.8753     -32483080     
     84500   401.48265      401.64174      2188.3816     -32483080     
     84600   401.48265      401.64174      2190.3376     -32483080     
     84700   401.48265      401.64174      2192.3016     -32483080     
     84800   401.48265      401.64174      2193.6002     -32483080     
     84900   401.48265      401.64174      2195.4793     -32483080     
     85000   401.48265      401.64174      2197.3482     -32483080     
     85100   401.48265      401.64174      2198.4045     -32483080     
     85200   401.48265      401.64174      2200.2069     -32483080     
     85300   401.48265      401.64174      2202.3725     -32483079     
     85400   401.48265      401.64174      2203.8521     -32483079     
     85500   401.48265      401.64174      2205.644      -32483079     
     85600   401.48265      401.64174      2206.9861     -32483079     
     85700   401.48265      401.64174      2208.7887     -32483079     
     85800   401.48265      401.64174      2210.1661     -32483079     
     85900   401.48265      401.64174      2212.1661     -32483079     
     86000   401.48265      401.64174      2213.7322     -32483079     
     86100   401.48265      401.64174      2215.4451     -32483079     
     86200   401.48265      401.64174      2216.9454     -32483079     
     86300   401.48265      401.64174      2218.7945     -32483079     
     86400   401.48265      401.64174      2220.4753     -32483079     
     86500   401.48265      401.64174      2221.9262     -32483079     
     86600   401.48265      401.64174      2223.3816     -32483079     
     86700   401.48265      401.64174      2224.9275     -32483079     
     86800   401.48265      401.64174      2226.6498     -32483079     
     86900   401.48265      401.64174      2228.0034     -32483079     
     87000   401.48265      401.64174      2229.706      -32483079     
     87100   401.48265      401.64174      2231.1761     -32483079     
     87200   401.48265      401.64174      2233.1073     -32483079     
     87300   401.48265      401.64174      2234.4211     -32483079     
     87400   401.48265      401.64174      2235.8963     -32483079     
     87500   401.48265      401.64174      2237.4337     -32483079     
     87600   401.48265      401.64174      2239.191      -32483079     
     87700   401.48265      401.64174      2240.406      -32483079     
     87800   401.48265      401.64174      2242.1133     -32483079     
     87900   401.48265      401.64174      2243.149      -32483079     
     88000   401.48265      401.64174      2245.1242     -32483079     
     88100   401.48265      401.64174      2246.6844     -32483079     
     88200   401.48265      401.64174      2248.0618     -32483079     
     88300   401.48265      401.64174      2249.6723     -32483079     
     88400   401.48265      401.64174      2251.0605     -32483079     
     88500   401.48265      401.64174      2253.0519     -32483079     
     88600   401.48265      401.64174      2253.9718     -32483079     
     88700   401.48265      401.64174      2256.0621     -32483079     
     88800   401.48265      401.64174      2257.1888     -32483079     
     88900   401.48265      401.64174      2258.4311     -32483079     
     89000   401.48265      401.64174      2260.1494     -32483079     
     89100   401.48265      401.64174      2261.477      -32483080     
     89200   401.48265      401.64174      2263.1574     -32483080     
     89300   401.48265      401.64174      2264.4455     -32483080     
     89400   401.48265      401.64174      2266.1475     -32483080     
     89500   401.48265      401.64174      2267.8694     -32483080     
     89600   401.48265      401.64174      2269.4696     -32483080     
     89700   401.48265      401.64174      2270.5128     -32483080     
     89800   401.48265      401.64174      2272.6865     -32483080     
     89900   401.48265      401.64174      2273.6812     -32483080     
     90000   401.48265      401.64174      2275.1792     -32483080     
Loop time of 13495.8 on 80 procs for 10000 steps with 11595345 atoms

Performance: 0.064 ns/day, 374.885 hours/ns, 0.741 timesteps/s
99.7% CPU use with 80 MPI tasks x 1 OpenMP threads

MPI task timing breakdown:
Section |  min time  |  avg time  |  max time  |%varavg| %total
---------------------------------------------------------------
Pair    | 0.03189    | 8253.9     | 11559      |2793.7 | 61.16
Neigh   | 0.087376   | 220.59     | 415.96     | 995.9 |  1.63
Comm    | 5.5316     | 3418.6     | 7665.3     |3377.1 | 25.33
Output  | 518.2      | 539.79     | 869.75     | 234.7 |  4.00
Modify  | 2.4705     | 37.172     | 102.07     | 358.7 |  0.28
Other   |            | 1026       |            |       |  7.60

Nlocal:         144942 ave      270121 max           0 min
Histogram: 14 5 12 3 3 4 9 4 2 24
Nghost:        52679.7 ave      102541 max           0 min
Histogram: 10 9 7 10 4 0 11 5 16 8
Neighs:    1.20175e+07 ave 2.33923e+07 max           0 min
Histogram: 16 6 10 2 4 7 8 3 0 24

Total # of neighbors = 9.613976e+08
Ave neighs/atom = 82.912376
Neighbor list builds = 448
Dangerous builds = 0
System init for write_restart ...
Setting up Verlet run ...
  Unit style    : metal
  Current step  : 90000
  Time step     : 0.001
Per MPI rank memory allocation (min/avg/max) = 226.9 | 258.9 | 307.6 Mbytes
   Step           Lx             Ly             Lz           TotEng    
     90000   401.48265      401.64174      2275.2367     -32483080     
     90100   401.48265      401.64174      2276.1151     -32483080     
     90200   401.48265      401.64174      2278.4841     -32483080     
     90300   401.48265      401.64174      2279.7004     -32483080     
     90400   401.48265      401.64174      2281.7749     -32483080     
     90500   401.48265      401.64174      2283.0451     -32483080     
     90600   401.48265      401.64174      2284.5558     -32483081     
     90700   401.48265      401.64174      2286.1511     -32483081     
     90800   401.48265      401.64174      2287.3626     -32483081     
     90900   401.48265      401.64174      2288.8203     -32483081     
     91000   401.48265      401.64174      2290.0603     -32483081     
     91100   401.48265      401.64174      2291.8058     -32483081     
     91200   401.48265      401.64174      2293.0343     -32483081     
     91300   401.48265      401.64174      2294.8014     -32483081     
     91400   401.48265      401.64174      2295.9275     -32483081     
     91500   401.48265      401.64174      2298.0357     -32483081     
     91600   401.48265      401.64174      2299.3978     -32483081     
     91700   401.48265      401.64174      2301.1246     -32483081     
     91800   401.48265      401.64174      2302.646      -32483081     
     91900   401.48265      401.64174      2304.2441     -32483082     
     92000   401.48265      401.64174      2305.4433     -32483082     
     92100   401.48265      401.64174      2307.2261     -32483082     
     92200   401.48265      401.64174      2308.3086     -32483082     
     92300   401.48265      401.64174      2309.9838     -32483082     
     92400   401.48265      401.64174      2311.2591     -32483082     
     92500   401.48265      401.64174      2312.9317     -32483082     
     92600   401.48265      401.64174      2314.1788     -32483082     
     92700   401.48265      401.64174      2316.0481     -32483082     
     92800   401.48265      401.64174      2317.0842     -32483082     
     92900   401.48265      401.64174      2319.0143     -32483082     
     93000   401.48265      401.64174      2320.6553     -32483082     
     93100   401.48265      401.64174      2322.0535     -32483082     
     93200   401.48265      401.64174      2323.3898     -32483082     
     93300   401.48265      401.64174      2324.9464     -32483082     
     93400   401.48265      401.64174      2326.8157     -32483082     
     93500   401.48265      401.64174      2328.6126     -32483082     
     93600   401.48265      401.64174      2330.181      -32483082     
     93700   401.48265      401.64174      2331.5176     -32483082     
     93800   401.48265      401.64174      2332.9884     -32483082     
     93900   401.48265      401.64174      2334.6422     -32483082     
     94000   401.48265      401.64174      2336.1641     -32483082     
     94100   401.48265      401.64174      2338.0988     -32483082     
     94200   401.48265      401.64174      2339.4293     -32483082     
     94300   401.48265      401.64174      2340.9415     -32483082     
     94400   401.48265      401.64174      2342.3023     -32483082     
     94500   401.48265      401.64174      2344.1862     -32483082     
     94600   401.48265      401.64174      2345.9333     -32483082     
     94700   401.48265      401.64174      2347.3816     -32483082     
     94800   401.48265      401.64174      2348.9995     -32483082     
     94900   401.48265      401.64174      2351.2376     -32483082     
     95000   401.48265      401.64174      2352.3543     -32483082     
     95100   401.48265      401.64174      2353.7413     -32483082     
     95200   401.48265      401.64174      2355.557      -32483082     
     95300   401.48265      401.64174      2357.3422     -32483082     
     95400   401.48265      401.64174      2358.6677     -32483082     
     95500   401.48265      401.64174      2360.1304     -32483082     
     95600   401.48265      401.64174      2361.5582     -32483082     
     95700   401.48265      401.64174      2363.5282     -32483082     
     95800   401.48265      401.64174      2364.9877     -32483082     
     95900   401.48265      401.64174      2366.7139     -32483082     
     96000   401.48265      401.64174      2368.0816     -32483082     
     96100   401.48265      401.64174      2370.132      -32483082     
     96200   401.48265      401.64174      2371.3599     -32483082     
     96300   401.48265      401.64174      2373.5373     -32483082     
     96400   401.48265      401.64174      2374.8565     -32483082     
     96500   401.48265      401.64174      2376.4266     -32483082     
     96600   401.48265      401.64174      2377.9068     -32483082     
     96700   401.48265      401.64174      2379.8883     -32483082     
     96800   401.48265      401.64174      2381.2179     -32483082     
     96900   401.48265      401.64174      2382.9466     -32483081     
     97000   401.48265      401.64174      2384.5173     -32483082     
     97100   401.48265      401.64174      2386.2875     -32483081     
     97200   401.48265      401.64174      2387.8159     -32483081     
     97300   401.48265      401.64174      2389.8517     -32483081     
     97400   401.48265      401.64174      2390.4229     -32483081     
     97500   401.48265      401.64174      2392.4901     -32483081     
     97600   401.48265      401.64174      2394.5456     -32483081     
     97700   401.48265      401.64174      2395.5374     -32483081     
     97800   401.48265      401.64174      2397.634      -32483081     
     97900   401.48265      401.64174      2398.9167     -32483081     
     98000   401.48265      401.64174      2400.4736     -32483081     
     98100   401.48265      401.64174      2401.8889     -32483081     
     98200   401.48265      401.64174      2403.3464     -32483081     
     98300   401.48265      401.64174      2405.0531     -32483081     
     98400   401.48265      401.64174      2406.7907     -32483081     
     98500   401.48265      401.64174      2408.3596     -32483081     
     98600   401.48265      401.64174      2409.9461     -32483081     
     98700   401.48265      401.64174      2411.4871     -32483081     
     98800   401.48265      401.64174      2413.4757     -32483081     
     98900   401.48265      401.64174      2415.0651     -32483081     
     99000   401.48265      401.64174      2416.9843     -32483081     
     99100   401.48265      401.64174      2418.2249     -32483081     
     99200   401.48265      401.64174      2420.1173     -32483081     
     99300   401.48265      401.64174      2421.0972     -32483081     
     99400   401.48265      401.64174      2423.2349     -32483081     
     99500   401.48265      401.64174      2424.6725     -32483080     
     99600   401.48265      401.64174      2426.5735     -32483081     
     99700   401.48265      401.64174      2428.4833     -32483080     
     99800   401.48265      401.64174      2429.5795     -32483080     
     99900   401.48265      401.64174      2431.154      -32483081     
    100000   401.48265      401.64174      2432.5044     -32483081     
Loop time of 14388.9 on 80 procs for 10000 steps with 11595345 atoms

Performance: 0.060 ns/day, 399.690 hours/ns, 0.695 timesteps/s
99.7% CPU use with 80 MPI tasks x 1 OpenMP threads

MPI task timing breakdown:
Section |  min time  |  avg time  |  max time  |%varavg| %total
---------------------------------------------------------------
Pair    | 0.022727   | 8601.2     | 12542      |3014.0 | 59.78
Neigh   | 0.087742   | 222.26     | 451.42     |1095.4 |  1.54
Comm    | 5.2481     | 3879.2     | 8275.6     |3564.2 | 26.96
Output  | 501.19     | 524.88     | 870.9      | 251.9 |  3.65
Modify  | 2.3067     | 38.236     | 111.49     | 385.1 |  0.27
Other   |            | 1123       |            |       |  7.81

Nlocal:         144942 ave      288628 max           0 min
Histogram: 17 9 6 3 3 9 6 3 0 24
Nghost:        51990.2 ave      107575 max           0 min
Histogram: 12 13 4 8 3 11 4 1 17 7
Neighs:    1.20176e+07 ave 2.50044e+07 max           0 min
Histogram: 19 9 6 1 6 10 3 2 0 24

Total # of neighbors = 9.6140977e+08
Ave neighs/atom = 82.913425
Neighbor list builds = 448
Dangerous builds = 0
System init for write_restart ...
Total wall time: 34:10:56
--------------------------------------------------------------------------
A system call failed during shared memory initialization that should
not have.  It is likely that your MPI job will now either abort or
experience performance degradation.

  Local host:  node2
  System call: unlink(2) /dev/shm/vader_segment.node2.1000.1a260001.59
  Error:       No such file or directory (errno 2)
--------------------------------------------------------------------------
[node2:178485] 79 more processes have sent help message help-opal-shmem-mmap.txt / sys call fail
[node2:178485] Set MCA parameter "orte_base_help_aggregate" to 0 to see all help / error messages
